MODEL 1
REMARK VINA RESULT:    -7.013      0.000      0.000
REMARK INTER + INTRA:         -12.430
REMARK INTER:                 -11.523
REMARK INTRA:                  -0.907
REMARK UNBOUND:                -0.907
REMARK SMILES CC[C@@H]1CCC[C@H](N[C@H]2NCN[C@H]3C[C@@H](OCCOC)[C@@H](OCCOC)C[C@@H]23)C1
REMARK SMILES IDX 9 1 28 2 27 3 21 4 15 5 14 6 13 7 12 8 11 9 10 10 8 13 7 15
REMARK SMILES IDX 3 16 29 17 4 18 5 19 6 20 2 21 1 22 22 23 23 24 24 25 25 26
REMARK SMILES IDX 26 27 16 28 17 29 18 30 19 31 20 32
REMARK H PARENT 12 11 10 12 8 14
ROOT
ATOM      1  C   UNL     1      23.550  -0.238  53.427  1.00  0.00    +0.127 C 
ATOM      2  C   UNL     1      22.203  -0.134  53.000  1.00  0.00    +0.040 C 
ATOM      3  C   UNL     1      21.882   0.526  51.809  1.00  0.00    +0.043 C 
ATOM      4  C   UNL     1      20.548   0.621  51.393  1.00  0.00    +0.147 C 
ATOM      5  C   UNL     1      19.510   0.036  52.178  1.00  0.00    +0.148 C 
ATOM      6  C   UNL     1      19.839  -0.625  53.362  1.00  0.00    +0.054 C 
ATOM      7  C   UNL     1      21.169  -0.725  53.772  1.00  0.00    +0.063 C 
ATOM      8  N   UNL     1      21.494  -1.412  54.998  1.00  0.00    -0.301 NA
ATOM      9  C   UNL     1      22.841  -1.506  55.409  1.00  0.00    +0.166 C 
ATOM     10  N   UNL     1      23.863  -0.917  54.627  1.00  0.00    -0.289 NA
ATOM     11  H   UNL     1       3.171  -5.968  -1.401  1.00  0.00    +0.124 HD
ATOM     12  H   UNL     1       3.171  -5.968  -1.401  1.00  0.00    +0.125 HD
ENDROOT
BRANCH   1  13
ATOM     13  N   UNL     1      24.628   0.359  52.654  1.00  0.00    -0.299 NA
ATOM     14  H   UNL     1      13.199 -22.306  -0.053  1.00  0.00    +0.124 HD
BRANCH  13  15
ATOM     15  C   UNL     1      26.030   0.655  52.931  1.00  0.00    +0.055 C 
ATOM     16  C   UNL     1      28.288  -0.164  53.302  1.00  0.00    -0.010 C 
ATOM     17  C   UNL     1      26.936  -0.412  53.036  1.00  0.00    +0.022 C 
ATOM     18  C   UNL     1      28.751   1.163  53.466  1.00  0.00    +0.004 C 
ATOM     19  C   UNL     1      27.842   2.238  53.361  1.00  0.00    +0.002 C 
ATOM     20  C   UNL     1      26.482   1.986  53.094  1.00  0.00    +0.019 C 
BRANCH  16  21
ATOM     21  C   UNL     1      29.166  -1.257  53.402  1.00  0.00    +0.000 C 
ATOM     22  C   UNL     1      29.911  -2.195  53.509  1.00  0.00    +0.004 C 
ENDBRANCH  16  21
ENDBRANCH  13  15
ENDBRANCH   1  13
BRANCH   4  23
ATOM     23  O   UNL     1      20.225   1.328  50.120  1.00  0.00    -0.373 OA
BRANCH  23  24
ATOM     24  C   UNL     1      21.206   1.021  49.095  1.00  0.00    +0.189 C 
BRANCH  24  25
ATOM     25  C   UNL     1      21.319   2.218  48.143  1.00  0.00    +0.188 C 
BRANCH  25  26
ATOM     26  O   UNL     1      22.688   2.683  48.104  1.00  0.00    -0.382 OA
ATOM     27  C   UNL     1      23.295   3.062  49.471  1.00  0.00    +0.195 C 
ENDBRANCH  25  26
ENDBRANCH  24  25
ENDBRANCH  23  24
ENDBRANCH   4  23
BRANCH   5  28
ATOM     28  O   UNL     1      18.055   0.111  51.762  1.00  0.00    -0.373 OA
BRANCH  28  29
ATOM     29  C   UNL     1      17.254  -0.937  52.396  1.00  0.00    +0.189 C 
BRANCH  29  30
ATOM     30  C   UNL     1      15.748  -0.684  52.233  1.00  0.00    +0.188 C 
BRANCH  30  31
ATOM     31  O   UNL     1      15.299   0.240  53.241  1.00  0.00    -0.382 OA
ATOM     32  C   UNL     1      13.771   0.335  53.356  1.00  0.00    +0.195 C 
ENDBRANCH  30  31
ENDBRANCH  29  30
ENDBRANCH  28  29
ENDBRANCH   5  28
TORSDOF 11
ENDMDL
MODEL 2
REMARK VINA RESULT:    -6.973      3.676      5.847
REMARK INTER + INTRA:         -12.364
REMARK INTER:                 -11.081
REMARK INTRA:                  -1.284
REMARK UNBOUND:                -0.907
REMARK SMILES CC[C@@H]1CCC[C@H](N[C@H]2NCN[C@H]3C[C@@H](OCCOC)[C@@H](OCCOC)C[C@@H]23)C1
REMARK SMILES IDX 9 1 28 2 27 3 21 4 15 5 14 6 13 7 12 8 11 9 10 10 8 13 7 15
REMARK SMILES IDX 3 16 29 17 4 18 5 19 6 20 2 21 1 22 22 23 23 24 24 25 25 26
REMARK SMILES IDX 26 27 16 28 17 29 18 30 19 31 20 32
REMARK H PARENT 12 11 10 12 8 14
ROOT
ATOM      1  C   UNL     1      26.543   2.574  51.097  1.00  0.00    +0.127 C 
ATOM      2  C   UNL     1      25.255   2.129  51.483  1.00  0.00    +0.040 C 
ATOM      3  C   UNL     1      24.185   2.179  50.584  1.00  0.00    +0.043 C 
ATOM      4  C   UNL     1      22.916   1.733  50.973  1.00  0.00    +0.147 C 
ATOM      5  C   UNL     1      22.710   1.216  52.287  1.00  0.00    +0.148 C 
ATOM      6  C   UNL     1      23.784   1.165  53.176  1.00  0.00    +0.054 C 
ATOM      7  C   UNL     1      25.049   1.604  52.786  1.00  0.00    +0.063 C 
ATOM      8  N   UNL     1      26.150   1.543  53.716  1.00  0.00    -0.301 NA
ATOM      9  C   UNL     1      27.427   1.992  53.315  1.00  0.00    +0.166 C 
ATOM     10  N   UNL     1      27.620   2.509  52.011  1.00  0.00    -0.289 NA
ATOM     11  H   UNL     1     -11.354 -28.641  18.792  1.00  0.00    +0.124 HD
ATOM     12  H   UNL     1     -11.354 -28.641  18.792  1.00  0.00    +0.125 HD
ENDROOT
BRANCH   1  13
ATOM     13  N   UNL     1      26.779   3.118  49.769  1.00  0.00    -0.299 NA
ATOM     14  H   UNL     1      70.699 -31.344  32.282  1.00  0.00    +0.124 HD
BRANCH  13  15
ATOM     15  C   UNL     1      26.763   4.466  49.208  1.00  0.00    +0.055 C 
ATOM     16  C   UNL     1      27.970   6.274  48.120  1.00  0.00    -0.010 C 
ATOM     17  C   UNL     1      27.950   4.985  48.666  1.00  0.00    +0.022 C 
ATOM     18  C   UNL     1      26.795   7.062  48.111  1.00  0.00    +0.004 C 
ATOM     19  C   UNL     1      25.601   6.543  48.656  1.00  0.00    +0.002 C 
ATOM     20  C   UNL     1      25.583   5.246  49.204  1.00  0.00    +0.019 C 
BRANCH  16  21
ATOM     21  C   UNL     1      29.176   6.761  47.588  1.00  0.00    +0.000 C 
ATOM     22  C   UNL     1      30.218   7.159  47.140  1.00  0.00    +0.004 C 
ENDBRANCH  16  21
ENDBRANCH  13  15
ENDBRANCH   1  13
BRANCH   4  23
ATOM     23  O   UNL     1      21.786   1.793  50.000  1.00  0.00    -0.373 OA
BRANCH  23  24
ATOM     24  C   UNL     1      21.491   3.167  49.634  1.00  0.00    +0.189 C 
BRANCH  24  25
ATOM     25  C   UNL     1      20.749   3.841  50.795  1.00  0.00    +0.188 C 
BRANCH  25  26
ATOM     26  O   UNL     1      21.204   5.207  50.935  1.00  0.00    -0.382 OA
ATOM     27  C   UNL     1      22.560   5.381  51.654  1.00  0.00    +0.195 C 
ENDBRANCH  25  26
ENDBRANCH  24  25
ENDBRANCH  23  24
ENDBRANCH   4  23
BRANCH   5  28
ATOM     28  O   UNL     1      21.354   0.718  52.747  1.00  0.00    -0.373 OA
BRANCH  28  29
ATOM     29  C   UNL     1      21.392   0.241  54.130  1.00  0.00    +0.189 C 
BRANCH  29  30
ATOM     30  C   UNL     1      20.756  -1.149  54.273  1.00  0.00    +0.188 C 
BRANCH  30  31
ATOM     31  O   UNL     1      21.718  -2.069  54.823  1.00  0.00    -0.382 OA
ATOM     32  C   UNL     1      22.947  -1.384  55.436  1.00  0.00    +0.195 C 
ENDBRANCH  30  31
ENDBRANCH  29  30
ENDBRANCH  28  29
ENDBRANCH   5  28
TORSDOF 11
ENDMDL
MODEL 3
REMARK VINA RESULT:    -6.820      1.514      2.115
REMARK INTER + INTRA:         -12.113
REMARK INTER:                 -11.184
REMARK INTRA:                  -0.929
REMARK UNBOUND:                -0.907
REMARK SMILES CC[C@@H]1CCC[C@H](N[C@H]2NCN[C@H]3C[C@@H](OCCOC)[C@@H](OCCOC)C[C@@H]23)C1
REMARK SMILES IDX 9 1 28 2 27 3 21 4 15 5 14 6 13 7 12 8 11 9 10 10 8 13 7 15
REMARK SMILES IDX 3 16 29 17 4 18 5 19 6 20 2 21 1 22 22 23 23 24 24 25 25 26
REMARK SMILES IDX 26 27 16 28 17 29 18 30 19 31 20 32
REMARK H PARENT 12 11 10 12 8 14
ROOT
ATOM      1  C   UNL     1      23.423  -0.175  53.563  1.00  0.00    +0.127 C 
ATOM      2  C   UNL     1      22.059  -0.144  53.182  1.00  0.00    +0.040 C 
ATOM      3  C   UNL     1      21.648   0.592  52.065  1.00  0.00    +0.043 C 
ATOM      4  C   UNL     1      20.298   0.615  51.693  1.00  0.00    +0.147 C 
ATOM      5  C   UNL     1      19.335  -0.121  52.447  1.00  0.00    +0.148 C 
ATOM      6  C   UNL     1      19.754  -0.856  53.557  1.00  0.00    +0.054 C 
ATOM      7  C   UNL     1      21.100  -0.883  53.923  1.00  0.00    +0.063 C 
ATOM      8  N   UNL     1      21.518  -1.648  55.072  1.00  0.00    -0.301 NA
ATOM      9  C   UNL     1      22.881  -1.668  55.438  1.00  0.00    +0.166 C 
ATOM     10  N   UNL     1      23.828  -0.930  54.687  1.00  0.00    -0.289 NA
ATOM     11  H   UNL     1       1.783  -2.632  -1.025  1.00  0.00    +0.124 HD
ATOM     12  H   UNL     1       1.783  -2.632  -1.025  1.00  0.00    +0.125 HD
ENDROOT
BRANCH   1  13
ATOM     13  N   UNL     1      24.424   0.575  52.821  1.00  0.00    -0.299 NA
ATOM     14  H   UNL     1       5.742  -8.714  -1.833  1.00  0.00    +0.124 HD
BRANCH  13  15
ATOM     15  C   UNL     1      25.861   0.778  52.978  1.00  0.00    +0.055 C 
ATOM     16  C   UNL     1      28.079  -0.191  53.206  1.00  0.00    -0.010 C 
ATOM     17  C   UNL     1      26.696  -0.348  53.054  1.00  0.00    +0.022 C 
ATOM     18  C   UNL     1      28.644   1.104  53.284  1.00  0.00    +0.004 C 
ATOM     19  C   UNL     1      27.807   2.238  53.209  1.00  0.00    +0.002 C 
ATOM     20  C   UNL     1      26.417   2.077  53.056  1.00  0.00    +0.019 C 
BRANCH  16  21
ATOM     21  C   UNL     1      28.884  -1.340  53.279  1.00  0.00    +0.000 C 
ATOM     22  C   UNL     1      29.560  -2.332  53.358  1.00  0.00    +0.004 C 
ENDBRANCH  16  21
ENDBRANCH  13  15
ENDBRANCH   1  13
BRANCH   4  23
ATOM     23  O   UNL     1      19.879   1.403  50.499  1.00  0.00    -0.373 OA
BRANCH  23  24
ATOM     24  C   UNL     1      20.419   2.750  50.552  1.00  0.00    +0.189 C 
BRANCH  24  25
ATOM     25  C   UNL     1      19.257   3.749  50.601  1.00  0.00    +0.188 C 
BRANCH  25  26
ATOM     26  O   UNL     1      18.525   3.585  51.838  1.00  0.00    -0.382 OA
ATOM     27  C   UNL     1      17.014   3.313  51.680  1.00  0.00    +0.195 C 
ENDBRANCH  25  26
ENDBRANCH  24  25
ENDBRANCH  23  24
ENDBRANCH   4  23
BRANCH   5  28
ATOM     28  O   UNL     1      17.866  -0.129  52.077  1.00  0.00    -0.373 OA
BRANCH  28  29
ATOM     29  C   UNL     1      17.136  -1.191  52.770  1.00  0.00    +0.189 C 
BRANCH  29  30
ATOM     30  C   UNL     1      15.742  -1.415  52.167  1.00  0.00    +0.188 C 
BRANCH  30  31
ATOM     31  O   UNL     1      15.331  -2.777  52.384  1.00  0.00    -0.382 OA
ATOM     32  C   UNL     1      16.366  -3.621  53.141  1.00  0.00    +0.195 C 
ENDBRANCH  30  31
ENDBRANCH  29  30
ENDBRANCH  28  29
ENDBRANCH   5  28
TORSDOF 11
ENDMDL
MODEL 4
REMARK VINA RESULT:    -6.791      2.115      2.272
REMARK INTER + INTRA:         -12.064
REMARK INTER:                 -10.933
REMARK INTRA:                  -1.132
REMARK UNBOUND:                -0.907
REMARK SMILES CC[C@@H]1CCC[C@H](N[C@H]2NCN[C@H]3C[C@@H](OCCOC)[C@@H](OCCOC)C[C@@H]23)C1
REMARK SMILES IDX 9 1 28 2 27 3 21 4 15 5 14 6 13 7 12 8 11 9 10 10 8 13 7 15
REMARK SMILES IDX 3 16 29 17 4 18 5 19 6 20 2 21 1 22 22 23 23 24 24 25 25 26
REMARK SMILES IDX 26 27 16 28 17 29 18 30 19 31 20 32
REMARK H PARENT 12 11 10 12 8 14
ROOT
ATOM      1  C   UNL     1      23.717  -0.012  53.275  1.00  0.00    +0.127 C 
ATOM      2  C   UNL     1      22.640   0.865  52.996  1.00  0.00    +0.040 C 
ATOM      3  C   UNL     1      22.761   1.851  52.012  1.00  0.00    +0.043 C 
ATOM      4  C   UNL     1      21.690   2.712  51.740  1.00  0.00    +0.147 C 
ATOM      5  C   UNL     1      20.465   2.580  52.460  1.00  0.00    +0.148 C 
ATOM      6  C   UNL     1      20.351   1.590  53.437  1.00  0.00    +0.054 C 
ATOM      7  C   UNL     1      21.416   0.730  53.703  1.00  0.00    +0.063 C 
ATOM      8  N   UNL     1      21.283  -0.290  54.714  1.00  0.00    -0.301 NA
ATOM      9  C   UNL     1      22.366  -1.154  54.981  1.00  0.00    +0.166 C 
ATOM     10  N   UNL     1      23.579  -1.012  54.265  1.00  0.00    -0.289 NA
ATOM     11  H   UNL     1       5.778  18.445   0.438  1.00  0.00    +0.124 HD
ATOM     12  H   UNL     1       5.778  18.445   0.438  1.00  0.00    +0.125 HD
ENDROOT
BRANCH   1  13
ATOM     13  N   UNL     1      24.981   0.108  52.566  1.00  0.00    -0.299 NA
ATOM     14  H   UNL     1      22.045 -47.268  18.373  1.00  0.00    +0.124 HD
BRANCH  13  15
ATOM     15  C   UNL     1      26.323   0.534  52.952  1.00  0.00    +0.055 C 
ATOM     16  C   UNL     1      28.606  -0.070  53.528  1.00  0.00    -0.010 C 
ATOM     17  C   UNL     1      27.309  -0.444  53.157  1.00  0.00    +0.022 C 
ATOM     18  C   UNL     1      28.932   1.296  53.699  1.00  0.00    +0.004 C 
ATOM     19  C   UNL     1      27.944   2.282  53.494  1.00  0.00    +0.002 C 
ATOM     20  C   UNL     1      26.639   1.903  53.121  1.00  0.00    +0.019 C 
BRANCH  16  21
ATOM     21  C   UNL     1      29.567  -1.077  53.726  1.00  0.00    +0.000 C 
ATOM     22  C   UNL     1      30.404  -1.922  53.899  1.00  0.00    +0.004 C 
ENDBRANCH  16  21
ENDBRANCH  13  15
ENDBRANCH   1  13
BRANCH   4  23
ATOM     23  O   UNL     1      21.837   3.757  50.686  1.00  0.00    -0.373 OA
BRANCH  23  24
ATOM     24  C   UNL     1      22.270   3.169  49.431  1.00  0.00    +0.189 C 
BRANCH  24  25
ATOM     25  C   UNL     1      23.453   3.980  48.886  1.00  0.00    +0.188 C 
BRANCH  25  26
ATOM     26  O   UNL     1      24.389   4.254  49.955  1.00  0.00    -0.382 OA
ATOM     27  C   UNL     1      25.711   4.921  49.518  1.00  0.00    +0.195 C 
ENDBRANCH  25  26
ENDBRANCH  24  25
ENDBRANCH  23  24
ENDBRANCH   4  23
BRANCH   5  28
ATOM     28  O   UNL     1      19.279   3.486  52.194  1.00  0.00    -0.373 OA
BRANCH  28  29
ATOM     29  C   UNL     1      18.422   2.961  51.131  1.00  0.00    +0.189 C 
BRANCH  29  30
ATOM     30  C   UNL     1      16.939   2.983  51.528  1.00  0.00    +0.188 C 
BRANCH  30  31
ATOM     31  O   UNL     1      16.696   4.072  52.437  1.00  0.00    -0.382 OA
ATOM     32  C   UNL     1      15.259   4.117  52.977  1.00  0.00    +0.195 C 
ENDBRANCH  30  31
ENDBRANCH  29  30
ENDBRANCH  28  29
ENDBRANCH   5  28
TORSDOF 11
ENDMDL
MODEL 5
REMARK VINA RESULT:    -6.497      2.972      8.213
REMARK INTER + INTRA:         -11.582
REMARK INTER:                 -10.545
REMARK INTRA:                  -1.037
REMARK UNBOUND:                -0.907
REMARK SMILES CC[C@@H]1CCC[C@H](N[C@H]2NCN[C@H]3C[C@@H](OCCOC)[C@@H](OCCOC)C[C@@H]23)C1
REMARK SMILES IDX 9 1 28 2 27 3 21 4 15 5 14 6 13 7 12 8 11 9 10 10 8 13 7 15
REMARK SMILES IDX 3 16 29 17 4 18 5 19 6 20 2 21 1 22 22 23 23 24 24 25 25 26
REMARK SMILES IDX 26 27 16 28 17 29 18 30 19 31 20 32
REMARK H PARENT 12 11 10 12 8 14
ROOT
ATOM      1  C   UNL     1      21.284   0.378  53.398  1.00  0.00    +0.127 C 
ATOM      2  C   UNL     1      22.611   0.610  52.957  1.00  0.00    +0.040 C 
ATOM      3  C   UNL     1      22.873   1.542  51.948  1.00  0.00    +0.043 C 
ATOM      4  C   UNL     1      24.187   1.768  51.521  1.00  0.00    +0.147 C 
ATOM      5  C   UNL     1      25.268   1.054  52.120  1.00  0.00    +0.148 C 
ATOM      6  C   UNL     1      24.998   0.130  53.130  1.00  0.00    +0.054 C 
ATOM      7  C   UNL     1      23.689  -0.090  53.559  1.00  0.00    +0.063 C 
ATOM      8  N   UNL     1      23.426  -1.048  54.605  1.00  0.00    -0.301 NA
ATOM      9  C   UNL     1      22.098  -1.268  55.032  1.00  0.00    +0.166 C 
ATOM     10  N   UNL     1      21.033  -0.559  54.427  1.00  0.00    -0.289 NA
ATOM     11  H   UNL     1      45.714  52.168  40.162  1.00  0.00    +0.124 HD
ATOM     12  H   UNL     1      45.714  52.168  40.162  1.00  0.00    +0.125 HD
ENDROOT
BRANCH   1  13
ATOM     13  N   UNL     1      20.162   1.082  52.796  1.00  0.00    -0.299 NA
ATOM     14  H   UNL     1       5.329  36.398  97.012  1.00  0.00    +0.124 HD
BRANCH  13  15
ATOM     15  C   UNL     1      19.076   0.683  51.906  1.00  0.00    +0.055 C 
ATOM     16  C   UNL     1      17.109  -0.692  51.521  1.00  0.00    -0.010 C 
ATOM     17  C   UNL     1      18.162  -0.286  52.349  1.00  0.00    +0.022 C 
ATOM     18  C   UNL     1      16.959  -0.129  50.232  1.00  0.00    +0.004 C 
ATOM     19  C   UNL     1      17.876   0.845  49.783  1.00  0.00    +0.002 C 
ATOM     20  C   UNL     1      18.935   1.252  50.618  1.00  0.00    +0.019 C 
BRANCH  16  21
ATOM     21  C   UNL     1      16.214  -1.665  51.998  1.00  0.00    +0.000 C 
ATOM     22  C   UNL     1      15.436  -2.480  52.416  1.00  0.00    +0.004 C 
ENDBRANCH  16  21
ENDBRANCH  13  15
ENDBRANCH   1  13
BRANCH   4  23
ATOM     23  O   UNL     1      24.448   2.766  50.444  1.00  0.00    -0.373 OA
BRANCH  23  24
ATOM     24  C   UNL     1      23.492   3.857  50.507  1.00  0.00    +0.189 C 
BRANCH  24  25
ATOM     25  C   UNL     1      24.257   5.185  50.561  1.00  0.00    +0.188 C 
BRANCH  25  26
ATOM     26  O   UNL     1      23.369   6.241  50.994  1.00  0.00    -0.382 OA
ATOM     27  C   UNL     1      23.950   7.669  50.908  1.00  0.00    +0.195 C 
ENDBRANCH  25  26
ENDBRANCH  24  25
ENDBRANCH  23  24
ENDBRANCH   4  23
BRANCH   5  28
ATOM     28  O   UNL     1      26.705   1.271  51.692  1.00  0.00    -0.373 OA
BRANCH  28  29
ATOM     29  C   UNL     1      27.650   0.847  52.726  1.00  0.00    +0.189 C 
BRANCH  29  30
ATOM     30  C   UNL     1      28.347   2.044  53.389  1.00  0.00    +0.188 C 
BRANCH  30  31
ATOM     31  O   UNL     1      28.813   1.671  54.699  1.00  0.00    -0.382 OA
ATOM     32  C   UNL     1      28.547   0.201  55.054  1.00  0.00    +0.195 C 
ENDBRANCH  30  31
ENDBRANCH  29  30
ENDBRANCH  28  29
ENDBRANCH   5  28
TORSDOF 11
ENDMDL
MODEL 6
REMARK VINA RESULT:    -6.359      2.585      3.434
REMARK INTER + INTRA:         -11.355
REMARK INTER:                 -10.353
REMARK INTRA:                  -1.001
REMARK UNBOUND:                -0.907
REMARK SMILES CC[C@@H]1CCC[C@H](N[C@H]2NCN[C@H]3C[C@@H](OCCOC)[C@@H](OCCOC)C[C@@H]23)C1
REMARK SMILES IDX 9 1 28 2 27 3 21 4 15 5 14 6 13 7 12 8 11 9 10 10 8 13 7 15
REMARK SMILES IDX 3 16 29 17 4 18 5 19 6 20 2 21 1 22 22 23 23 24 24 25 25 26
REMARK SMILES IDX 26 27 16 28 17 29 18 30 19 31 20 32
REMARK H PARENT 12 11 10 12 8 14
ROOT
ATOM      1  C   UNL     1      23.814   0.026  53.172  1.00  0.00    +0.127 C 
ATOM      2  C   UNL     1      22.408  -0.144  53.184  1.00  0.00    +0.040 C 
ATOM      3  C   UNL     1      21.619   0.374  52.152  1.00  0.00    +0.043 C 
ATOM      4  C   UNL     1      20.230   0.199  52.170  1.00  0.00    +0.147 C 
ATOM      5  C   UNL     1      19.612  -0.518  53.238  1.00  0.00    +0.148 C 
ATOM      6  C   UNL     1      20.407  -1.035  54.262  1.00  0.00    +0.054 C 
ATOM      7  C   UNL     1      21.791  -0.865  54.240  1.00  0.00    +0.063 C 
ATOM      8  N   UNL     1      22.599  -1.407  55.304  1.00  0.00    -0.301 NA
ATOM      9  C   UNL     1      23.999  -1.229  55.278  1.00  0.00    +0.166 C 
ATOM     10  N   UNL     1      24.602  -0.511  54.216  1.00  0.00    -0.289 NA
ATOM     11  H   UNL     1     -10.787 -12.613   7.377  1.00  0.00    +0.124 HD
ATOM     12  H   UNL     1     -10.787 -12.613   7.377  1.00  0.00    +0.125 HD
ENDROOT
BRANCH   1  13
ATOM     13  N   UNL     1      24.469   0.762  52.103  1.00  0.00    -0.299 NA
ATOM     14  H   UNL     1      75.451 -27.830  49.738  1.00  0.00    +0.124 HD
BRANCH  13  15
ATOM     15  C   UNL     1      24.508   2.170  51.718  1.00  0.00    +0.055 C 
ATOM     16  C   UNL     1      25.548   3.934  50.408  1.00  0.00    -0.010 C 
ATOM     17  C   UNL     1      25.482   2.591  50.799  1.00  0.00    +0.022 C 
ATOM     18  C   UNL     1      24.635   4.876  50.938  1.00  0.00    +0.004 C 
ATOM     19  C   UNL     1      23.655   4.456  51.864  1.00  0.00    +0.002 C 
ATOM     20  C   UNL     1      23.591   3.104  52.255  1.00  0.00    +0.019 C 
BRANCH  16  21
ATOM     21  C   UNL     1      26.536   4.320  49.486  1.00  0.00    +0.000 C 
ATOM     22  C   UNL     1      27.391   4.630  48.700  1.00  0.00    +0.004 C 
ENDBRANCH  16  21
ENDBRANCH  13  15
ENDBRANCH   1  13
BRANCH   4  23
ATOM     23  O   UNL     1      19.405   0.757  51.060  1.00  0.00    -0.373 OA
BRANCH  23  24
ATOM     24  C   UNL     1      20.048   1.917  50.469  1.00  0.00    +0.189 C 
BRANCH  24  25
ATOM     25  C   UNL     1      19.597   2.045  49.009  1.00  0.00    +0.188 C 
BRANCH  25  26
ATOM     26  O   UNL     1      20.755   2.114  48.145  1.00  0.00    -0.382 OA
ATOM     27  C   UNL     1      22.119   2.079  48.868  1.00  0.00    +0.195 C 
ENDBRANCH  25  26
ENDBRANCH  24  25
ENDBRANCH  23  24
ENDBRANCH   4  23
BRANCH   5  28
ATOM     28  O   UNL     1      18.113  -0.735  53.294  1.00  0.00    -0.373 OA
BRANCH  28  29
ATOM     29  C   UNL     1      17.771  -2.158  53.329  1.00  0.00    +0.189 C 
BRANCH  29  30
ATOM     30  C   UNL     1      16.364  -2.421  52.774  1.00  0.00    +0.188 C 
BRANCH  30  31
ATOM     31  O   UNL     1      16.112  -3.838  52.741  1.00  0.00    -0.382 OA
ATOM     32  C   UNL     1      16.721  -4.602  53.925  1.00  0.00    +0.195 C 
ENDBRANCH  30  31
ENDBRANCH  29  30
ENDBRANCH  28  29
ENDBRANCH   5  28
TORSDOF 11
ENDMDL
MODEL 7
REMARK VINA RESULT:    -6.202      3.517      8.859
REMARK INTER + INTRA:         -11.098
REMARK INTER:                  -9.883
REMARK INTRA:                  -1.215
REMARK UNBOUND:                -0.907
REMARK SMILES CC[C@@H]1CCC[C@H](N[C@H]2NCN[C@H]3C[C@@H](OCCOC)[C@@H](OCCOC)C[C@@H]23)C1
REMARK SMILES IDX 9 1 28 2 27 3 21 4 15 5 14 6 13 7 12 8 11 9 10 10 8 13 7 15
REMARK SMILES IDX 3 16 29 17 4 18 5 19 6 20 2 21 1 22 22 23 23 24 24 25 25 26
REMARK SMILES IDX 26 27 16 28 17 29 18 30 19 31 20 32
REMARK H PARENT 12 11 10 12 8 14
ROOT
ATOM      1  C   UNL     1      21.687   3.303  51.857  1.00  0.00    +0.127 C 
ATOM      2  C   UNL     1      22.688   2.353  52.177  1.00  0.00    +0.040 C 
ATOM      3  C   UNL     1      22.378   1.223  52.942  1.00  0.00    +0.043 C 
ATOM      4  C   UNL     1      23.373   0.286  53.250  1.00  0.00    +0.147 C 
ATOM      5  C   UNL     1      24.706   0.476  52.778  1.00  0.00    +0.148 C 
ATOM      6  C   UNL     1      25.005   1.603  52.012  1.00  0.00    +0.054 C 
ATOM      7  C   UNL     1      24.013   2.532  51.700  1.00  0.00    +0.063 C 
ATOM      8  N   UNL     1      24.337   3.692  50.906  1.00  0.00    -0.301 NA
ATOM      9  C   UNL     1      23.328   4.630  50.598  1.00  0.00    +0.166 C 
ATOM     10  N   UNL     1      22.010   4.436  51.076  1.00  0.00    -0.289 NA
ATOM     11  H   UNL     1      16.223 -55.214  52.150  1.00  0.00    +0.124 HD
ATOM     12  H   UNL     1      16.223 -55.214  52.150  1.00  0.00    +0.125 HD
ENDROOT
BRANCH   1  13
ATOM     13  N   UNL     1      20.323   3.143  52.336  1.00  0.00    -0.299 NA
ATOM     14  H   UNL     1      29.435 -33.333  97.156  1.00  0.00    +0.124 HD
BRANCH  13  15
ATOM     15  C   UNL     1      19.025   3.033  51.678  1.00  0.00    +0.055 C 
ATOM     16  C   UNL     1      17.242   1.614  50.830  1.00  0.00    -0.010 C 
ATOM     17  C   UNL     1      18.485   1.756  51.459  1.00  0.00    +0.022 C 
ATOM     18  C   UNL     1      16.522   2.757  50.411  1.00  0.00    +0.004 C 
ATOM     19  C   UNL     1      17.062   4.043  50.629  1.00  0.00    +0.002 C 
ATOM     20  C   UNL     1      18.312   4.183  51.262  1.00  0.00    +0.019 C 
BRANCH  16  21
ATOM     21  C   UNL     1      16.734   0.320  50.627  1.00  0.00    +0.000 C 
ATOM     22  C   UNL     1      16.320  -0.795  50.450  1.00  0.00    +0.004 C 
ENDBRANCH  16  21
ENDBRANCH  13  15
ENDBRANCH   1  13
BRANCH   4  23
ATOM     23  O   UNL     1      23.025  -0.913  54.065  1.00  0.00    -0.373 OA
BRANCH  23  24
ATOM     24  C   UNL     1      21.781  -0.707  54.784  1.00  0.00    +0.189 C 
BRANCH  24  25
ATOM     25  C   UNL     1      20.718  -1.658  54.221  1.00  0.00    +0.188 C 
BRANCH  25  26
ATOM     26  O   UNL     1      19.667  -0.894  53.586  1.00  0.00    -0.382 OA
ATOM     27  C   UNL     1      18.300  -1.605  53.489  1.00  0.00    +0.195 C 
ENDBRANCH  25  26
ENDBRANCH  24  25
ENDBRANCH  23  24
ENDBRANCH   4  23
BRANCH   5  28
ATOM     28  O   UNL     1      25.812  -0.515  53.084  1.00  0.00    -0.373 OA
BRANCH  28  29
ATOM     29  C   UNL     1      27.138   0.083  52.923  1.00  0.00    +0.189 C 
BRANCH  29  30
ATOM     30  C   UNL     1      27.772   0.439  54.275  1.00  0.00    +0.188 C 
BRANCH  30  31
ATOM     31  O   UNL     1      28.692  -0.596  54.668  1.00  0.00    -0.382 OA
ATOM     32  C   UNL     1      29.678  -0.999  53.564  1.00  0.00    +0.195 C 
ENDBRANCH  30  31
ENDBRANCH  29  30
ENDBRANCH  28  29
ENDBRANCH   5  28
TORSDOF 11
ENDMDL
MODEL 8
REMARK VINA RESULT:    -6.128      2.363      2.721
REMARK INTER + INTRA:         -10.975
REMARK INTER:                  -9.677
REMARK INTRA:                  -1.298
REMARK UNBOUND:                -0.907
REMARK SMILES CC[C@@H]1CCC[C@H](N[C@H]2NCN[C@H]3C[C@@H](OCCOC)[C@@H](OCCOC)C[C@@H]23)C1
REMARK SMILES IDX 9 1 28 2 27 3 21 4 15 5 14 6 13 7 12 8 11 9 10 10 8 13 7 15
REMARK SMILES IDX 3 16 29 17 4 18 5 19 6 20 2 21 1 22 22 23 23 24 24 25 25 26
REMARK SMILES IDX 26 27 16 28 17 29 18 30 19 31 20 32
REMARK H PARENT 12 11 10 12 8 14
ROOT
ATOM      1  C   UNL     1      21.775   0.567  53.305  1.00  0.00    +0.127 C 
ATOM      2  C   UNL     1      20.631   0.796  52.502  1.00  0.00    +0.040 C 
ATOM      3  C   UNL     1      20.594   1.871  51.607  1.00  0.00    +0.043 C 
ATOM      4  C   UNL     1      19.460   2.088  50.814  1.00  0.00    +0.147 C 
ATOM      5  C   UNL     1      18.341   1.208  50.908  1.00  0.00    +0.148 C 
ATOM      6  C   UNL     1      18.389   0.136  51.800  1.00  0.00    +0.054 C 
ATOM      7  C   UNL     1      19.521  -0.083  52.585  1.00  0.00    +0.063 C 
ATOM      8  N   UNL     1      19.556  -1.197  53.502  1.00  0.00    -0.301 NA
ATOM      9  C   UNL     1      20.703  -1.410  54.296  1.00  0.00    +0.166 C 
ATOM     10  N   UNL     1      21.806  -0.528  54.199  1.00  0.00    -0.289 NA
ATOM     11  H   UNL     1      20.775  16.806  -3.170  1.00  0.00    +0.124 HD
ATOM     12  H   UNL     1      20.775  16.806  -3.170  1.00  0.00    +0.125 HD
ENDROOT
BRANCH   1  13
ATOM     13  N   UNL     1      22.926   1.455  53.239  1.00  0.00    -0.299 NA
ATOM     14  H   UNL     1      -4.005  52.291  42.619  1.00  0.00    +0.124 HD
BRANCH  13  15
ATOM     15  C   UNL     1      24.277   1.325  52.703  1.00  0.00    +0.055 C 
ATOM     16  C   UNL     1      26.245  -0.059  52.355  1.00  0.00    -0.010 C 
ATOM     17  C   UNL     1      24.948   0.101  52.856  1.00  0.00    +0.022 C 
ATOM     18  C   UNL     1      26.889   1.011  51.691  1.00  0.00    +0.004 C 
ATOM     19  C   UNL     1      26.218   2.243  51.536  1.00  0.00    +0.002 C 
ATOM     20  C   UNL     1      24.913   2.402  52.041  1.00  0.00    +0.019 C 
BRANCH  16  21
ATOM     21  C   UNL     1      26.886  -1.298  52.527  1.00  0.00    +0.000 C 
ATOM     22  C   UNL     1      27.415  -2.368  52.667  1.00  0.00    +0.004 C 
ENDBRANCH  16  21
ENDBRANCH  13  15
ENDBRANCH   1  13
BRANCH   4  23
ATOM     23  O   UNL     1      19.438   3.237  49.864  1.00  0.00    -0.373 OA
BRANCH  23  24
ATOM     24  C   UNL     1      19.486   4.500  50.578  1.00  0.00    +0.189 C 
BRANCH  24  25
ATOM     25  C   UNL     1      20.621   5.354  49.999  1.00  0.00    +0.188 C 
BRANCH  25  26
ATOM     26  O   UNL     1      21.895   4.850  50.460  1.00  0.00    -0.382 OA
ATOM     27  C   UNL     1      22.259   5.210  51.917  1.00  0.00    +0.195 C 
ENDBRANCH  25  26
ENDBRANCH  24  25
ENDBRANCH  23  24
ENDBRANCH   4  23
BRANCH   5  28
ATOM     28  O   UNL     1      17.096   1.402  50.065  1.00  0.00    -0.373 OA
BRANCH  28  29
ATOM     29  C   UNL     1      15.953   1.827  50.873  1.00  0.00    +0.189 C 
BRANCH  29  30
ATOM     30  C   UNL     1      15.958   3.342  51.120  1.00  0.00    +0.188 C 
BRANCH  30  31
ATOM     31  O   UNL     1      14.777   3.719  51.851  1.00  0.00    -0.382 OA
ATOM     32  C   UNL     1      15.057   4.163  53.294  1.00  0.00    +0.195 C 
ENDBRANCH  30  31
ENDBRANCH  29  30
ENDBRANCH  28  29
ENDBRANCH   5  28
TORSDOF 11
ENDMDL
MODEL 9
REMARK VINA RESULT:    -6.114      2.808      3.852
REMARK INTER + INTRA:         -10.953
REMARK INTER:                  -9.738
REMARK INTRA:                  -1.215
REMARK UNBOUND:                -0.907
REMARK SMILES CC[C@@H]1CCC[C@H](N[C@H]2NCN[C@H]3C[C@@H](OCCOC)[C@@H](OCCOC)C[C@@H]23)C1
REMARK SMILES IDX 9 1 28 2 27 3 21 4 15 5 14 6 13 7 12 8 11 9 10 10 8 13 7 15
REMARK SMILES IDX 3 16 29 17 4 18 5 19 6 20 2 21 1 22 22 23 23 24 24 25 25 26
REMARK SMILES IDX 26 27 16 28 17 29 18 30 19 31 20 32
REMARK H PARENT 12 11 10 12 8 14
ROOT
ATOM      1  C   UNL     1      22.955  -0.552  53.473  1.00  0.00    +0.127 C 
ATOM      2  C   UNL     1      22.336   0.628  52.993  1.00  0.00    +0.040 C 
ATOM      3  C   UNL     1      23.087   1.610  52.338  1.00  0.00    +0.043 C 
ATOM      4  C   UNL     1      22.467   2.773  51.863  1.00  0.00    +0.147 C 
ATOM      5  C   UNL     1      21.063   2.957  52.037  1.00  0.00    +0.148 C 
ATOM      6  C   UNL     1      20.320   1.970  52.687  1.00  0.00    +0.054 C 
ATOM      7  C   UNL     1      20.938   0.810  53.154  1.00  0.00    +0.063 C 
ATOM      8  N   UNL     1      20.157  -0.201  53.823  1.00  0.00    -0.301 NA
ATOM      9  C   UNL     1      20.789  -1.371  54.296  1.00  0.00    +0.166 C 
ATOM     10  N   UNL     1      22.184  -1.542  54.124  1.00  0.00    -0.289 NA
ATOM     11  H   UNL     1      33.411  26.746   2.486  1.00  0.00    +0.124 HD
ATOM     12  H   UNL     1      33.411  26.746   2.486  1.00  0.00    +0.125 HD
ENDROOT
BRANCH   1  13
ATOM     13  N   UNL     1      24.387  -0.761  53.322  1.00  0.00    -0.299 NA
ATOM     14  H   UNL     1      24.328 -52.363  25.763  1.00  0.00    +0.124 HD
BRANCH  13  15
ATOM     15  C   UNL     1      25.545  -0.490  54.168  1.00  0.00    +0.055 C 
ATOM     16  C   UNL     1      27.950  -0.195  54.358  1.00  0.00    -0.010 C 
ATOM     17  C   UNL     1      26.818  -0.452  53.576  1.00  0.00    +0.022 C 
ATOM     18  C   UNL     1      27.820   0.027  55.749  1.00  0.00    +0.004 C 
ATOM     19  C   UNL     1      26.542  -0.011  56.347  1.00  0.00    +0.002 C 
ATOM     20  C   UNL     1      25.404  -0.270  55.558  1.00  0.00    +0.019 C 
BRANCH  16  21
ATOM     21  C   UNL     1      29.209  -0.166  53.732  1.00  0.00    +0.000 C 
ATOM     22  C   UNL     1      30.294  -0.152  53.215  1.00  0.00    +0.004 C 
ENDBRANCH  16  21
ENDBRANCH  13  15
ENDBRANCH   1  13
BRANCH   4  23
ATOM     23  O   UNL     1      23.283   3.808  51.166  1.00  0.00    -0.373 OA
BRANCH  23  24
ATOM     24  C   UNL     1      23.617   4.897  52.067  1.00  0.00    +0.189 C 
BRANCH  24  25
ATOM     25  C   UNL     1      23.846   6.170  51.243  1.00  0.00    +0.188 C 
BRANCH  25  26
ATOM     26  O   UNL     1      23.345   5.977  49.899  1.00  0.00    -0.382 OA
ATOM     27  C   UNL     1      24.382   6.176  48.773  1.00  0.00    +0.195 C 
ENDBRANCH  25  26
ENDBRANCH  24  25
ENDBRANCH  23  24
ENDBRANCH   4  23
BRANCH   5  28
ATOM     28  O   UNL     1      20.350   4.196  51.534  1.00  0.00    -0.373 OA
BRANCH  28  29
ATOM     29  C   UNL     1      19.108   3.864  50.835  1.00  0.00    +0.189 C 
BRANCH  29  30
ATOM     30  C   UNL     1      19.187   4.197  49.338  1.00  0.00    +0.188 C 
BRANCH  30  31
ATOM     31  O   UNL     1      20.496   3.870  48.836  1.00  0.00    -0.382 OA
ATOM     32  C   UNL     1      20.596   2.457  48.244  1.00  0.00    +0.195 C 
ENDBRANCH  30  31
ENDBRANCH  29  30
ENDBRANCH  28  29
ENDBRANCH   5  28
TORSDOF 11
ENDMDL
