REMARK SMILES CC[C@@H]1CCC[C@H](N[C@H]2NCN[C@H]3C[C@@H](OCCOC)[C@@H](OCCOC)C[C@@H]23)C1
REMARK SMILES IDX 9 1 28 2 27 3 21 4 15 5 14 6 13 7 12 8 11 9 10 10 8 13 7 15
REMARK SMILES IDX 3 16 29 17 4 18 5 19 6 20 2 21 1 22 22 23 23 24 24 25 25 26
REMARK SMILES IDX 26 27 16 28 17 29 18 30 19 31 20 32
REMARK H PARENT 12 11 10 12 8 14
ROOT
ATOM      1  C   UNL     1      23.410  -0.217  53.908  1.00  0.00    +0.127 C 
ATOM      2  C   UNL     1      22.037  -0.309  53.572  1.00  0.00    +0.040 C 
ATOM      3  C   UNL     1      21.501   0.476  52.546  1.00  0.00    +0.043 C 
ATOM      4  C   UNL     1      20.143   0.376  52.218  1.00  0.00    +0.147 C 
ATOM      5  C   UNL     1      19.301  -0.535  52.923  1.00  0.00    +0.148 C 
ATOM      6  C   UNL     1      19.845  -1.318  53.942  1.00  0.00    +0.054 C 
ATOM      7  C   UNL     1      21.199  -1.222  54.264  1.00  0.00    +0.063 C 
ATOM      8  N   UNL     1      21.747  -2.039  55.319  1.00  0.00    -0.301 NA
ATOM      9  C   UNL     1      23.117  -1.934  55.642  1.00  0.00    +0.166 C 
ATOM     10  N   UNL     1      23.943  -1.023  54.940  1.00  0.00    -0.289 NA
ATOM     11  H   UNL     1       0.000   0.000   0.000  1.00  0.00    +0.124 HD
ATOM     12  H   UNL     1       0.000   0.000   0.000  1.00  0.00    +0.125 HD
ENDROOT
BRANCH   1  13
ATOM     13  N   UNL     1      24.289   0.712  53.215  1.00  0.00    -0.299 NA
ATOM     14  H   UNL     1       0.000   0.000   0.000  1.00  0.00    +0.124 HD
BRANCH  13  15
ATOM     15  C   UNL     1      25.725   0.972  53.258  1.00  0.00    +0.055 C 
ATOM     16  C   UNL     1      27.989   0.094  53.366  1.00  0.00    -0.010 C 
ATOM     17  C   UNL     1      26.606  -0.119  53.323  1.00  0.00    +0.022 C 
ATOM     18  C   UNL     1      28.508   1.410  53.344  1.00  0.00    +0.004 C 
ATOM     19  C   UNL     1      27.625   2.509  53.279  1.00  0.00    +0.002 C 
ATOM     20  C   UNL     1      26.234   2.292  53.236  1.00  0.00    +0.019 C 
BRANCH  16  21
ATOM     21  C   UNL     1      28.841  -1.022  53.432  1.00  0.00    +0.000 C 
ATOM     22  C   UNL     1      29.552  -1.989  53.496  1.00  0.00    +0.004 C 
ENDBRANCH  16  21
ENDBRANCH  13  15
ENDBRANCH   1  13
BRANCH   4  23
ATOM     23  O   UNL     1      19.589   1.220  51.120  1.00  0.00    -0.373 OA
BRANCH  23  24
ATOM     24  C   UNL     1      20.550   1.362  50.041  1.00  0.00    +0.189 C 
BRANCH  24  25
ATOM     25  C   UNL     1      20.235   2.645  49.262  1.00  0.00    +0.188 C 
BRANCH  25  26
ATOM     26  O   UNL     1      18.990   2.485  48.543  1.00  0.00    -0.382 OA
ATOM     27  C   UNL     1      17.712   2.618  49.399  1.00  0.00    +0.195 C 
ENDBRANCH  25  26
ENDBRANCH  24  25
ENDBRANCH  23  24
ENDBRANCH   4  23
BRANCH   5  28
ATOM     28  O   UNL     1      17.828  -0.679  52.597  1.00  0.00    -0.373 OA
BRANCH  28  29
ATOM     29  C   UNL     1      17.227   0.601  52.220  1.00  0.00    +0.189 C 
BRANCH  29  30
ATOM     30  C   UNL     1      15.703   0.494  52.066  1.00  0.00    +0.188 C 
BRANCH  30  31
ATOM     31  O   UNL     1      15.108   0.167  53.335  1.00  0.00    -0.382 OA
ATOM     32  C   UNL     1      13.843  -0.695  53.221  1.00  0.00    +0.195 C 
ENDBRANCH  30  31
ENDBRANCH  29  30
ENDBRANCH  28  29
ENDBRANCH   5  28
TORSDOF 11
