MODEL 1
REMARK VINA RESULT:    -7.743      0.000      0.000
REMARK INTER + INTRA:         -10.442
REMARK INTER:                  -9.553
REMARK INTRA:                  -0.888
REMARK UNBOUND:                -0.888
REMARK SMILES O=[N+]([O-])c1cc(-c2ccc(O)c([N+](=O)[O-])c2)ccc1O
REMARK SMILES IDX 4 1 5 2 6 3 17 4 18 5 19 6 2 7 1 8 3 9 20 10 7 12 8 13 16 14
REMARK SMILES IDX 9 15 12 16 10 17 13 18 14 19 15 20 11 21
REMARK H PARENT 20 11 11 22
ROOT
ATOM      1  C   UNL     1      27.199   0.632  54.108  1.00  0.00    +0.311 A 
ATOM      2  C   UNL     1      25.846   0.270  54.236  1.00  0.00    +0.098 A 
ATOM      3  C   UNL     1      24.880   0.775  53.348  1.00  0.00    -0.011 A 
ATOM      4  C   UNL     1      25.308   1.646  52.332  1.00  0.00    +0.013 A 
ATOM      5  C   UNL     1      26.653   2.005  52.204  1.00  0.00    +0.054 A 
ATOM      6  C   UNL     1      27.604   1.502  53.088  1.00  0.00    +0.194 A 
ENDROOT
BRANCH   1   7
ATOM      7  N   UNL     1      28.168   0.084  55.060  1.00  0.00    +0.066 N 
ATOM      8  O   UNL     1      29.212  -0.403  54.596  1.00  0.00    -0.258 OA
ATOM      9  O   UNL     1      27.894   0.135  56.266  1.00  0.00    -0.258 OA
ENDBRANCH   1   7
BRANCH   6  10
ATOM     10  O   UNL     1      28.885   1.923  52.866  1.00  0.00    -0.502 OA
ATOM     11  H   UNL     1      28.887   2.865  52.593  1.00  0.00    +0.293 HD
ENDBRANCH   6  10
BRANCH   3  12
ATOM     12  C   UNL     1      23.462   0.403  53.476  1.00  0.00    -0.011 A 
ATOM     13  C   UNL     1      23.084  -0.811  54.073  1.00  0.00    +0.013 A 
ATOM     14  C   UNL     1      22.445   1.253  53.006  1.00  0.00    +0.098 A 
ATOM     15  C   UNL     1      21.738  -1.170  54.200  1.00  0.00    +0.054 A 
ATOM     16  C   UNL     1      21.090   0.892  53.133  1.00  0.00    +0.311 A 
ATOM     17  C   UNL     1      20.737  -0.323  53.732  1.00  0.00    +0.194 A 
BRANCH  16  18
ATOM     18  N   UNL     1      20.067   1.811  52.631  1.00  0.00    +0.066 N 
ATOM     19  O   UNL     1      20.174   3.010  52.940  1.00  0.00    -0.258 OA
ATOM     20  O   UNL     1      19.157   1.347  51.930  1.00  0.00    -0.258 OA
ENDBRANCH  16  18
BRANCH  17  21
ATOM     21  O   UNL     1      19.460  -0.778  53.909  1.00  0.00    -0.502 OA
ATOM     22  H   UNL     1      19.406  -1.323  54.723  1.00  0.00    +0.293 HD
ENDBRANCH  17  21
ENDBRANCH   3  12
TORSDOF 5
ENDMDL
MODEL 2
REMARK VINA RESULT:    -7.683      0.120      7.217
REMARK INTER + INTRA:         -10.368
REMARK INTER:                  -9.480
REMARK INTRA:                  -0.887
REMARK UNBOUND:                -0.888
REMARK SMILES O=[N+]([O-])c1cc(-c2ccc(O)c([N+](=O)[O-])c2)ccc1O
REMARK SMILES IDX 4 1 5 2 6 3 17 4 18 5 19 6 2 7 1 8 3 9 20 10 7 12 8 13 16 14
REMARK SMILES IDX 9 15 12 16 10 17 13 18 14 19 15 20 11 21
REMARK H PARENT 20 11 11 22
ROOT
ATOM      1  C   UNL     1      21.129   0.885  52.998  1.00  0.00    +0.311 A 
ATOM      2  C   UNL     1      22.486   1.238  52.887  1.00  0.00    +0.098 A 
ATOM      3  C   UNL     1      23.491   0.403  53.404  1.00  0.00    -0.011 A 
ATOM      4  C   UNL     1      23.098  -0.792  54.031  1.00  0.00    +0.013 A 
ATOM      5  C   UNL     1      21.750  -1.144  54.142  1.00  0.00    +0.054 A 
ATOM      6  C   UNL     1      20.761  -0.310  53.627  1.00  0.00    +0.194 A 
ENDROOT
BRANCH   1   7
ATOM      7  N   UNL     1      20.118   1.790  52.447  1.00  0.00    +0.066 N 
ATOM      8  O   UNL     1      19.312   1.316  51.629  1.00  0.00    -0.258 OA
ATOM      9  O   UNL     1      20.122   2.969  52.824  1.00  0.00    -0.258 OA
ENDBRANCH   1   7
BRANCH   6  10
ATOM     10  O   UNL     1      19.479  -0.757  53.795  1.00  0.00    -0.502 OA
ATOM     11  H   UNL     1      18.861   0.004  53.838  1.00  0.00    +0.293 HD
ENDBRANCH   6  10
BRANCH   3  12
ATOM     12  C   UNL     1      24.913   0.766  53.293  1.00  0.00    -0.011 A 
ATOM     13  C   UNL     1      25.365   1.611  52.267  1.00  0.00    +0.013 A 
ATOM     14  C   UNL     1      25.859   0.278  54.213  1.00  0.00    +0.098 A 
ATOM     15  C   UNL     1      26.715   1.961  52.155  1.00  0.00    +0.054 A 
ATOM     16  C   UNL     1      27.217   0.631  54.102  1.00  0.00    +0.311 A 
ATOM     17  C   UNL     1      27.645   1.475  53.070  1.00  0.00    +0.194 A 
BRANCH  16  18
ATOM     18  N   UNL     1      28.164   0.101  55.085  1.00  0.00    +0.066 N 
ATOM     19  O   UNL     1      29.197  -0.437  54.652  1.00  0.00    -0.258 OA
ATOM     20  O   UNL     1      27.886   0.218  56.286  1.00  0.00    -0.258 OA
ENDBRANCH  16  18
BRANCH  17  21
ATOM     21  O   UNL     1      28.933   1.884  52.863  1.00  0.00    -0.502 OA
ATOM     22  H   UNL     1      29.425   1.206  52.353  1.00  0.00    +0.293 HD
ENDBRANCH  17  21
ENDBRANCH   3  12
TORSDOF 5
ENDMDL
MODEL 3
REMARK VINA RESULT:    -7.629      1.368      2.206
REMARK INTER + INTRA:         -10.302
REMARK INTER:                  -9.546
REMARK INTRA:                  -0.756
REMARK UNBOUND:                -0.888
REMARK SMILES O=[N+]([O-])c1cc(-c2ccc(O)c([N+](=O)[O-])c2)ccc1O
REMARK SMILES IDX 4 1 5 2 6 3 17 4 18 5 19 6 2 7 1 8 3 9 20 10 7 12 8 13 16 14
REMARK SMILES IDX 9 15 12 16 10 17 13 18 14 19 15 20 11 21
REMARK H PARENT 20 11 11 22
ROOT
ATOM      1  C   UNL     1      27.204   0.702  53.904  1.00  0.00    +0.311 A 
ATOM      2  C   UNL     1      25.841   0.395  53.745  1.00  0.00    +0.098 A 
ATOM      3  C   UNL     1      25.077   1.014  52.740  1.00  0.00    -0.011 A 
ATOM      4  C   UNL     1      25.718   1.944  51.903  1.00  0.00    +0.013 A 
ATOM      5  C   UNL     1      27.073   2.249  52.061  1.00  0.00    +0.054 A 
ATOM      6  C   UNL     1      27.822   1.631  53.059  1.00  0.00    +0.194 A 
ENDROOT
BRANCH   1   7
ATOM      7  N   UNL     1      27.957   0.033  54.968  1.00  0.00    +0.066 N 
ATOM      8  O   UNL     1      29.000  -0.559  54.645  1.00  0.00    -0.258 OA
ATOM      9  O   UNL     1      27.516   0.095  56.123  1.00  0.00    -0.258 OA
ENDBRANCH   1   7
BRANCH   6  10
ATOM     10  O   UNL     1      29.135   2.008  53.119  1.00  0.00    -0.502 OA
ATOM     11  H   UNL     1      29.504   1.805  54.004  1.00  0.00    +0.293 HD
ENDBRANCH   6  10
BRANCH   3  12
ATOM     12  C   UNL     1      23.650   0.701  52.568  1.00  0.00    -0.011 A 
ATOM     13  C   UNL     1      22.898   1.298  51.543  1.00  0.00    +0.013 A 
ATOM     14  C   UNL     1      22.999  -0.205  53.424  1.00  0.00    +0.098 A 
ATOM     15  C   UNL     1      21.541   1.004  51.373  1.00  0.00    +0.054 A 
ATOM     16  C   UNL     1      21.633  -0.501  53.252  1.00  0.00    +0.311 A 
ATOM     17  C   UNL     1      20.904   0.106  52.224  1.00  0.00    +0.194 A 
BRANCH  16  18
ATOM     18  N   UNL     1      21.000  -1.454  54.167  1.00  0.00    +0.066 N 
ATOM     19  O   UNL     1      21.694  -1.906  55.092  1.00  0.00    -0.258 OA
ATOM     20  O   UNL     1      19.814  -1.753  53.969  1.00  0.00    -0.258 OA
ENDBRANCH  16  18
BRANCH  17  21
ATOM     21  O   UNL     1      19.578  -0.104  51.962  1.00  0.00    -0.502 OA
ATOM     22  H   UNL     1      19.350   0.245  51.074  1.00  0.00    +0.293 HD
ENDBRANCH  17  21
ENDBRANCH   3  12
TORSDOF 5
ENDMDL
MODEL 4
REMARK VINA RESULT:    -7.515      1.674      2.817
REMARK INTER + INTRA:         -10.161
REMARK INTER:                  -9.347
REMARK INTRA:                  -0.814
REMARK UNBOUND:                -0.888
REMARK SMILES O=[N+]([O-])c1cc(-c2ccc(O)c([N+](=O)[O-])c2)ccc1O
REMARK SMILES IDX 4 1 5 2 6 3 17 4 18 5 19 6 2 7 1 8 3 9 20 10 7 12 8 13 16 14
REMARK SMILES IDX 9 15 12 16 10 17 13 18 14 19 15 20 11 21
REMARK H PARENT 20 11 11 22
ROOT
ATOM      1  C   UNL     1      27.945   0.806  53.557  1.00  0.00    +0.311 A 
ATOM      2  C   UNL     1      26.564   1.067  53.492  1.00  0.00    +0.098 A 
ATOM      3  C   UNL     1      25.656   0.049  53.151  1.00  0.00    -0.011 A 
ATOM      4  C   UNL     1      26.170  -1.231  52.880  1.00  0.00    +0.013 A 
ATOM      5  C   UNL     1      27.542  -1.490  52.946  1.00  0.00    +0.054 A 
ATOM      6  C   UNL     1      28.435  -0.476  53.284  1.00  0.00    +0.194 A 
ENDROOT
BRANCH   1   7
ATOM      7  N   UNL     1      28.852   1.900  53.913  1.00  0.00    +0.066 N 
ATOM      8  O   UNL     1      29.476   1.800  54.983  1.00  0.00    -0.258 OA
ATOM      9  O   UNL     1      28.947   2.857  53.134  1.00  0.00    -0.258 OA
ENDBRANCH   1   7
BRANCH   6  10
ATOM     10  O   UNL     1      29.750  -0.847  53.315  1.00  0.00    -0.502 OA
ATOM     11  H   UNL     1      30.142  -0.774  52.418  1.00  0.00    +0.293 HD
ENDBRANCH   6  10
BRANCH   3  12
ATOM     12  C   UNL     1      24.210   0.314  53.078  1.00  0.00    -0.011 A 
ATOM     13  C   UNL     1      23.718   1.460  52.432  1.00  0.00    +0.013 A 
ATOM     14  C   UNL     1      23.282  -0.572  53.652  1.00  0.00    +0.098 A 
ATOM     15  C   UNL     1      22.345   1.718  52.358  1.00  0.00    +0.054 A 
ATOM     16  C   UNL     1      21.900  -0.313  53.577  1.00  0.00    +0.311 A 
ATOM     17  C   UNL     1      21.432   0.835  52.928  1.00  0.00    +0.194 A 
BRANCH  16  18
ATOM     18  N   UNL     1      20.971  -1.267  54.187  1.00  0.00    +0.066 N 
ATOM     19  O   UNL     1      21.394  -1.949  55.136  1.00  0.00    -0.258 OA
ATOM     20  O   UNL     1      19.824  -1.341  53.727  1.00  0.00    -0.258 OA
ENDBRANCH  16  18
BRANCH  17  21
ATOM     21  O   UNL     1      20.118   1.190  52.793  1.00  0.00    -0.502 OA
ATOM     22  H   UNL     1      20.042   2.159  52.662  1.00  0.00    +0.293 HD
ENDBRANCH  17  21
ENDBRANCH   3  12
TORSDOF 5
ENDMDL
MODEL 5
REMARK VINA RESULT:    -7.201      1.493      6.907
REMARK INTER + INTRA:          -9.774
REMARK INTER:                  -9.034
REMARK INTRA:                  -0.740
REMARK UNBOUND:                -0.888
REMARK SMILES O=[N+]([O-])c1cc(-c2ccc(O)c([N+](=O)[O-])c2)ccc1O
REMARK SMILES IDX 4 1 5 2 6 3 17 4 18 5 19 6 2 7 1 8 3 9 20 10 7 12 8 13 16 14
REMARK SMILES IDX 9 15 12 16 10 17 13 18 14 19 15 20 11 21
REMARK H PARENT 20 11 11 22
ROOT
ATOM      1  C   UNL     1      21.611  -0.448  53.146  1.00  0.00    +0.311 A 
ATOM      2  C   UNL     1      22.984  -0.180  53.301  1.00  0.00    +0.098 A 
ATOM      3  C   UNL     1      23.655   0.672  52.408  1.00  0.00    -0.011 A 
ATOM      4  C   UNL     1      22.914   1.246  51.360  1.00  0.00    +0.013 A 
ATOM      5  C   UNL     1      21.550   0.981  51.206  1.00  0.00    +0.054 A 
ATOM      6  C   UNL     1      20.893   0.134  52.096  1.00  0.00    +0.194 A 
ENDROOT
BRANCH   1   7
ATOM      7  N   UNL     1      20.957  -1.347  54.100  1.00  0.00    +0.066 N 
ATOM      8  O   UNL     1      21.643  -1.778  55.042  1.00  0.00    -0.258 OA
ATOM      9  O   UNL     1      19.765  -1.625  53.918  1.00  0.00    -0.258 OA
ENDBRANCH   1   7
BRANCH   6  10
ATOM     10  O   UNL     1      19.562  -0.052  51.845  1.00  0.00    -0.502 OA
ATOM     11  H   UNL     1      19.325  -0.995  51.971  1.00  0.00    +0.293 HD
ENDBRANCH   6  10
BRANCH   3  12
ATOM     12  C   UNL     1      25.091   0.956  52.561  1.00  0.00    -0.011 A 
ATOM     13  C   UNL     1      25.638   2.172  52.118  1.00  0.00    +0.013 A 
ATOM     14  C   UNL     1      25.955   0.020  53.156  1.00  0.00    +0.098 A 
ATOM     15  C   UNL     1      27.001   2.449  52.261  1.00  0.00    +0.054 A 
ATOM     16  C   UNL     1      27.327   0.299  53.301  1.00  0.00    +0.311 A 
ATOM     17  C   UNL     1      27.850   1.517  52.852  1.00  0.00    +0.194 A 
BRANCH  16  18
ATOM     18  N   UNL     1      28.187  -0.706  53.930  1.00  0.00    +0.066 N 
ATOM     19  O   UNL     1      28.259  -1.819  53.383  1.00  0.00    -0.258 OA
ATOM     20  O   UNL     1      28.790  -0.393  54.965  1.00  0.00    -0.258 OA
ENDBRANCH  16  18
BRANCH  17  21
ATOM     21  O   UNL     1      29.161   1.897  52.939  1.00  0.00    -0.502 OA
ATOM     22  H   UNL     1      29.223   2.864  53.093  1.00  0.00    +0.293 HD
ENDBRANCH  17  21
ENDBRANCH   3  12
TORSDOF 5
ENDMDL
MODEL 6
REMARK VINA RESULT:    -7.123      1.493      2.089
REMARK INTER + INTRA:          -9.677
REMARK INTER:                  -8.859
REMARK INTRA:                  -0.818
REMARK UNBOUND:                -0.888
REMARK SMILES O=[N+]([O-])c1cc(-c2ccc(O)c([N+](=O)[O-])c2)ccc1O
REMARK SMILES IDX 4 1 5 2 6 3 17 4 18 5 19 6 2 7 1 8 3 9 20 10 7 12 8 13 16 14
REMARK SMILES IDX 9 15 12 16 10 17 13 18 14 19 15 20 11 21
REMARK H PARENT 20 11 11 22
ROOT
ATOM      1  C   UNL     1      27.828   0.789  53.609  1.00  0.00    +0.311 A 
ATOM      2  C   UNL     1      26.436   0.996  53.621  1.00  0.00    +0.098 A 
ATOM      3  C   UNL     1      25.552  -0.048  53.301  1.00  0.00    -0.011 A 
ATOM      4  C   UNL     1      26.100  -1.300  52.971  1.00  0.00    +0.013 A 
ATOM      5  C   UNL     1      27.483  -1.506  52.960  1.00  0.00    +0.054 A 
ATOM      6  C   UNL     1      28.352  -0.465  53.278  1.00  0.00    +0.194 A 
ENDROOT
BRANCH   1   7
ATOM      7  N   UNL     1      28.709   1.910  53.946  1.00  0.00    +0.066 N 
ATOM      8  O   UNL     1      28.801   2.833  53.120  1.00  0.00    -0.258 OA
ATOM      9  O   UNL     1      29.309   1.876  55.028  1.00  0.00    -0.258 OA
ENDBRANCH   1   7
BRANCH   6  10
ATOM     10  O   UNL     1      29.681  -0.784  53.233  1.00  0.00    -0.502 OA
ATOM     11  H   UNL     1      29.837  -1.639  53.687  1.00  0.00    +0.293 HD
ENDBRANCH   6  10
BRANCH   3  12
ATOM     12  C   UNL     1      24.095   0.160  53.308  1.00  0.00    -0.011 A 
ATOM     13  C   UNL     1      23.231  -0.803  53.853  1.00  0.00    +0.013 A 
ATOM     14  C   UNL     1      23.528   1.329  52.770  1.00  0.00    +0.098 A 
ATOM     15  C   UNL     1      21.845  -0.612  53.865  1.00  0.00    +0.054 A 
ATOM     16  C   UNL     1      22.133   1.522  52.782  1.00  0.00    +0.311 A 
ATOM     17  C   UNL     1      21.291   0.548  53.331  1.00  0.00    +0.194 A 
BRANCH  16  18
ATOM     18  N   UNL     1      21.589   2.757  52.213  1.00  0.00    +0.066 N 
ATOM     19  O   UNL     1      22.183   3.247  51.238  1.00  0.00    -0.258 OA
ATOM     20  O   UNL     1      20.574   3.241  52.731  1.00  0.00    -0.258 OA
ENDBRANCH  16  18
BRANCH  17  21
ATOM     21  O   UNL     1      19.927   0.626  53.398  1.00  0.00    -0.502 OA
ATOM     22  H   UNL     1      19.641   1.564  53.365  1.00  0.00    +0.293 HD
ENDBRANCH  17  21
ENDBRANCH   3  12
TORSDOF 5
ENDMDL
MODEL 7
REMARK VINA RESULT:    -6.985      3.211      5.826
REMARK INTER + INTRA:          -9.507
REMARK INTER:                  -8.593
REMARK INTRA:                  -0.915
REMARK UNBOUND:                -0.888
REMARK SMILES O=[N+]([O-])c1cc(-c2ccc(O)c([N+](=O)[O-])c2)ccc1O
REMARK SMILES IDX 4 1 5 2 6 3 17 4 18 5 19 6 2 7 1 8 3 9 20 10 7 12 8 13 16 14
REMARK SMILES IDX 9 15 12 16 10 17 13 18 14 19 15 20 11 21
REMARK H PARENT 20 11 11 22
ROOT
ATOM      1  C   UNL     1      25.077   3.553  50.015  1.00  0.00    +0.311 A 
ATOM      2  C   UNL     1      25.296   2.688  51.103  1.00  0.00    +0.098 A 
ATOM      3  C   UNL     1      24.277   1.833  51.558  1.00  0.00    -0.011 A 
ATOM      4  C   UNL     1      23.039   1.870  50.893  1.00  0.00    +0.013 A 
ATOM      5  C   UNL     1      22.821   2.729  49.812  1.00  0.00    +0.054 A 
ATOM      6  C   UNL     1      23.837   3.573  49.368  1.00  0.00    +0.194 A 
ENDROOT
BRANCH   1   7
ATOM      7  N   UNL     1      26.169   4.427  49.580  1.00  0.00    +0.066 N 
ATOM      8  O   UNL     1      25.924   5.642  49.482  1.00  0.00    -0.258 OA
ATOM      9  O   UNL     1      27.268   3.913  49.337  1.00  0.00    -0.258 OA
ENDBRANCH   1   7
BRANCH   6  10
ATOM     10  O   UNL     1      23.508   4.368  48.306  1.00  0.00    -0.502 OA
ATOM     11  H   UNL     1      24.150   4.238  47.576  1.00  0.00    +0.293 HD
ENDBRANCH   6  10
BRANCH   3  12
ATOM     12  C   UNL     1      24.497   0.927  52.696  1.00  0.00    -0.011 A 
ATOM     13  C   UNL     1      23.481   0.065  53.139  1.00  0.00    +0.013 A 
ATOM     14  C   UNL     1      25.730   0.898  53.372  1.00  0.00    +0.098 A 
ATOM     15  C   UNL     1      23.682  -0.800  54.220  1.00  0.00    +0.054 A 
ATOM     16  C   UNL     1      25.933   0.027  54.459  1.00  0.00    +0.311 A 
ATOM     17  C   UNL     1      24.906  -0.823  54.883  1.00  0.00    +0.194 A 
BRANCH  16  18
ATOM     18  N   UNL     1      27.235   0.031  55.129  1.00  0.00    +0.066 N 
ATOM     19  O   UNL     1      28.248   0.038  54.410  1.00  0.00    -0.258 OA
ATOM     20  O   UNL     1      27.255   0.028  56.367  1.00  0.00    -0.258 OA
ENDBRANCH  16  18
BRANCH  17  21
ATOM     21  O   UNL     1      24.988  -1.708  55.923  1.00  0.00    -0.502 OA
ATOM     22  H   UNL     1      24.379  -1.438  56.644  1.00  0.00    +0.293 HD
ENDBRANCH  17  21
ENDBRANCH   3  12
TORSDOF 5
ENDMDL
MODEL 8
REMARK VINA RESULT:    -6.928      3.290      5.902
REMARK INTER + INTRA:          -9.436
REMARK INTER:                  -8.554
REMARK INTRA:                  -0.883
REMARK UNBOUND:                -0.888
REMARK SMILES O=[N+]([O-])c1cc(-c2ccc(O)c([N+](=O)[O-])c2)ccc1O
REMARK SMILES IDX 4 1 5 2 6 3 17 4 18 5 19 6 2 7 1 8 3 9 20 10 7 12 8 13 16 14
REMARK SMILES IDX 9 15 12 16 10 17 13 18 14 19 15 20 11 21
REMARK H PARENT 20 11 11 22
ROOT
ATOM      1  C   UNL     1      22.833   3.109  50.039  1.00  0.00    +0.311 A 
ATOM      2  C   UNL     1      23.047   2.347  51.202  1.00  0.00    +0.098 A 
ATOM      3  C   UNL     1      22.393   1.116  51.385  1.00  0.00    -0.011 A 
ATOM      4  C   UNL     1      21.524   0.674  50.373  1.00  0.00    +0.013 A 
ATOM      5  C   UNL     1      21.312   1.430  49.217  1.00  0.00    +0.054 A 
ATOM      6  C   UNL     1      21.964   2.649  49.043  1.00  0.00    +0.194 A 
ENDROOT
BRANCH   1   7
ATOM      7  N   UNL     1      23.535   4.387  49.895  1.00  0.00    +0.066 N 
ATOM      8  O   UNL     1      23.698   5.068  50.921  1.00  0.00    -0.258 OA
ATOM      9  O   UNL     1      23.924   4.716  48.767  1.00  0.00    -0.258 OA
ENDBRANCH   1   7
BRANCH   6  10
ATOM     10  O   UNL     1      21.677   3.300  47.876  1.00  0.00    -0.502 OA
ATOM     11  H   UNL     1      22.506   3.498  47.389  1.00  0.00    +0.293 HD
ENDBRANCH   6  10
BRANCH   3  12
ATOM     12  C   UNL     1      22.610   0.314  52.599  1.00  0.00    -0.011 A 
ATOM     13  C   UNL     1      21.526  -0.236  53.304  1.00  0.00    +0.013 A 
ATOM     14  C   UNL     1      23.906   0.074  53.088  1.00  0.00    +0.098 A 
ATOM     15  C   UNL     1      21.724  -1.000  54.459  1.00  0.00    +0.054 A 
ATOM     16  C   UNL     1      24.105  -0.695  54.250  1.00  0.00    +0.311 A 
ATOM     17  C   UNL     1      23.011  -1.233  54.936  1.00  0.00    +0.194 A 
BRANCH  16  18
ATOM     18  N   UNL     1      25.475  -0.920  54.718  1.00  0.00    +0.066 N 
ATOM     19  O   UNL     1      25.697  -0.768  55.931  1.00  0.00    -0.258 OA
ATOM     20  O   UNL     1      26.331  -1.249  53.885  1.00  0.00    -0.258 OA
ENDBRANCH  16  18
BRANCH  17  21
ATOM     21  O   UNL     1      23.082  -1.993  56.071  1.00  0.00    -0.502 OA
ATOM     22  H   UNL     1      23.868  -2.579  56.035  1.00  0.00    +0.293 HD
ENDBRANCH  17  21
ENDBRANCH   3  12
TORSDOF 5
ENDMDL
MODEL 9
REMARK VINA RESULT:    -6.911      2.177      6.746
REMARK INTER + INTRA:          -9.415
REMARK INTER:                  -8.533
REMARK INTRA:                  -0.882
REMARK UNBOUND:                -0.888
REMARK SMILES O=[N+]([O-])c1cc(-c2ccc(O)c([N+](=O)[O-])c2)ccc1O
REMARK SMILES IDX 4 1 5 2 6 3 17 4 18 5 19 6 2 7 1 8 3 9 20 10 7 12 8 13 16 14
REMARK SMILES IDX 9 15 12 16 10 17 13 18 14 19 15 20 11 21
REMARK H PARENT 20 11 11 22
ROOT
ATOM      1  C   UNL     1      20.989  -0.286  52.907  1.00  0.00    +0.311 A 
ATOM      2  C   UNL     1      22.204   0.375  52.650  1.00  0.00    +0.098 A 
ATOM      3  C   UNL     1      23.346   0.106  53.425  1.00  0.00    -0.011 A 
ATOM      4  C   UNL     1      23.234  -0.841  54.458  1.00  0.00    +0.013 A 
ATOM      5  C   UNL     1      22.027  -1.498  54.712  1.00  0.00    +0.054 A 
ATOM      6  C   UNL     1      20.901  -1.225  53.940  1.00  0.00    +0.194 A 
ENDROOT
BRANCH   1   7
ATOM      7  N   UNL     1      19.826   0.031  52.074  1.00  0.00    +0.066 N 
ATOM      8  O   UNL     1      18.704  -0.063  52.599  1.00  0.00    -0.258 OA
ATOM      9  O   UNL     1      20.024   0.374  50.901  1.00  0.00    -0.258 OA
ENDBRANCH   1   7
BRANCH   6  10
ATOM     10  O   UNL     1      19.778  -1.927  54.281  1.00  0.00    -0.502 OA
ATOM     11  H   UNL     1      19.018  -1.316  54.384  1.00  0.00    +0.293 HD
ENDBRANCH   6  10
BRANCH   3  12
ATOM     12  C   UNL     1      24.620   0.795  53.166  1.00  0.00    -0.011 A 
ATOM     13  C   UNL     1      25.742   0.569  53.981  1.00  0.00    +0.013 A 
ATOM     14  C   UNL     1      24.752   1.696  52.095  1.00  0.00    +0.098 A 
ATOM     15  C   UNL     1      26.957   1.219  53.740  1.00  0.00    +0.054 A 
ATOM     16  C   UNL     1      25.975   2.350  51.852  1.00  0.00    +0.311 A 
ATOM     17  C   UNL     1      27.079   2.110  52.677  1.00  0.00    +0.194 A 
BRANCH  16  18
ATOM     18  N   UNL     1      26.064   3.279  50.723  1.00  0.00    +0.066 N 
ATOM     19  O   UNL     1      25.227   4.195  50.669  1.00  0.00    -0.258 OA
ATOM     20  O   UNL     1      26.962   3.100  49.890  1.00  0.00    -0.258 OA
ENDBRANCH  16  18
BRANCH  17  21
ATOM     21  O   UNL     1      28.312   2.685  52.539  1.00  0.00    -0.502 OA
ATOM     22  H   UNL     1      28.729   2.392  51.700  1.00  0.00    +0.293 HD
ENDBRANCH  17  21
ENDBRANCH   3  12
TORSDOF 5
ENDMDL
