MODEL 1
REMARK VINA RESULT:    -8.662      0.000      0.000
REMARK INTER + INTRA:         -11.250
REMARK INTER:                 -10.434
REMARK INTRA:                  -0.816
REMARK UNBOUND:                -0.816
REMARK SMILES Cc1cc(-c2ccc(O)c([N+](=O)[O-])c2)[nH]c1-c1ccccc1
REMARK SMILES IDX 5 1 6 2 7 3 8 4 10 5 14 6 4 7 2 8 3 9 16 10 15 11 1 12 17 14
REMARK SMILES IDX 18 15 22 16 19 17 21 18 20 19 11 20 12 21 13 22 9 23
REMARK H PARENT 15 13 9 24
ROOT
ATOM      1  C   UNL     1      24.392   0.778  52.797  1.00  0.00    +0.005 A 
ATOM      2  C   UNL     1      23.329  -0.014  53.264  1.00  0.00    +0.014 A 
ATOM      3  C   UNL     1      23.483  -0.854  54.375  1.00  0.00    +0.054 A 
ATOM      4  C   UNL     1      24.708  -0.916  55.033  1.00  0.00    +0.194 A 
ATOM      5  C   UNL     1      25.764  -0.135  54.567  1.00  0.00    +0.311 A 
ATOM      6  C   UNL     1      25.621   0.716  53.464  1.00  0.00    +0.100 A 
ENDROOT
BRANCH   1   7
ATOM      7  C   UNL     1      24.227   1.660  51.642  1.00  0.00    +0.046 A 
ATOM      8  C   UNL     1      23.499   2.804  49.806  1.00  0.00    -0.025 A 
ATOM      9  C   UNL     1      23.171   1.797  50.760  1.00  0.00    +0.032 A 
ATOM     10  C   UNL     1      24.763   3.274  50.137  1.00  0.00    +0.049 A 
ATOM     11  N   UNL     1      25.175   2.576  51.249  1.00  0.00    -0.354 N 
ATOM     12  C   UNL     1      22.630   3.258  48.688  1.00  0.00    +0.047 C 
ATOM     13  H   UNL     1      26.061   2.724  51.710  1.00  0.00    +0.167 HD
BRANCH  10  14
ATOM     14  C   UNL     1      25.606   4.291  49.514  1.00  0.00    -0.002 A 
ATOM     15  C   UNL     1      26.938   4.010  49.193  1.00  0.00    +0.010 A 
ATOM     16  C   UNL     1      25.095   5.567  49.236  1.00  0.00    +0.010 A 
ATOM     17  C   UNL     1      27.749   4.985  48.607  1.00  0.00    +0.001 A 
ATOM     18  C   UNL     1      25.905   6.541  48.649  1.00  0.00    +0.001 A 
ATOM     19  C   UNL     1      27.231   6.250  48.335  1.00  0.00    +0.000 A 
ENDBRANCH  10  14
ENDBRANCH   1   7
BRANCH   5  20
ATOM     20  N   UNL     1      27.055  -0.188  55.219  1.00  0.00    +0.066 N 
ATOM     21  O   UNL     1      28.011  -0.587  54.537  1.00  0.00    -0.258 OA
ATOM     22  O   UNL     1      27.101   0.111  56.420  1.00  0.00    -0.258 OA
ENDBRANCH   5  20
BRANCH   4  23
ATOM     23  O   UNL     1      24.853  -1.710  56.131  1.00  0.00    -0.502 OA
ATOM     24  H   UNL     1      24.658  -1.204  56.937  1.00  0.00    +0.293 HD
ENDBRANCH   4  23
TORSDOF 4
ENDMDL
MODEL 2
REMARK VINA RESULT:    -8.505      4.088      6.200
REMARK INTER + INTRA:         -11.062
REMARK INTER:                 -10.264
REMARK INTRA:                  -0.797
REMARK UNBOUND:                -0.816
REMARK SMILES Cc1cc(-c2ccc(O)c([N+](=O)[O-])c2)[nH]c1-c1ccccc1
REMARK SMILES IDX 5 1 6 2 7 3 8 4 10 5 14 6 4 7 2 8 3 9 16 10 15 11 1 12 17 14
REMARK SMILES IDX 18 15 22 16 19 17 21 18 20 19 11 20 12 21 13 22 9 23
REMARK H PARENT 15 13 9 24
ROOT
ATOM      1  C   UNL     1      22.385   0.020  52.917  1.00  0.00    +0.005 A 
ATOM      2  C   UNL     1      22.157  -0.859  53.990  1.00  0.00    +0.014 A 
ATOM      3  C   UNL     1      20.862  -1.277  54.324  1.00  0.00    +0.054 A 
ATOM      4  C   UNL     1      19.773  -0.817  53.588  1.00  0.00    +0.194 A 
ATOM      5  C   UNL     1      19.999   0.059  52.527  1.00  0.00    +0.311 A 
ATOM      6  C   UNL     1      21.288   0.476  52.177  1.00  0.00    +0.100 A 
ENDROOT
BRANCH   1   7
ATOM      7  C   UNL     1      23.738   0.449  52.566  1.00  0.00    +0.046 A 
ATOM      8  C   UNL     1      25.597   1.478  51.732  1.00  0.00    -0.025 A 
ATOM      9  C   UNL     1      24.172   1.464  51.734  1.00  0.00    +0.032 A 
ATOM     10  C   UNL     1      26.009   0.461  52.583  1.00  0.00    +0.049 A 
ATOM     11  N   UNL     1      24.873  -0.137  53.077  1.00  0.00    -0.354 N 
ATOM     12  C   UNL     1      26.455   2.421  50.967  1.00  0.00    +0.047 C 
ATOM     13  H   UNL     1      24.881  -0.906  53.731  1.00  0.00    +0.167 HD
BRANCH  10  14
ATOM     14  C   UNL     1      27.344   0.003  52.960  1.00  0.00    -0.002 A 
ATOM     15  C   UNL     1      27.690  -1.347  52.846  1.00  0.00    +0.010 A 
ATOM     16  C   UNL     1      28.295   0.909  53.451  1.00  0.00    +0.010 A 
ATOM     17  C   UNL     1      28.962  -1.788  53.217  1.00  0.00    +0.001 A 
ATOM     18  C   UNL     1      29.567   0.468  53.820  1.00  0.00    +0.001 A 
ATOM     19  C   UNL     1      29.900  -0.880  53.703  1.00  0.00    +0.000 A 
ENDBRANCH  10  14
ENDBRANCH   1   7
BRANCH   5  20
ATOM     20  N   UNL     1      18.887   0.568  51.752  1.00  0.00    +0.066 N 
ATOM     21  O   UNL     1      18.184  -0.268  51.166  1.00  0.00    -0.258 OA
ATOM     22  O   UNL     1      18.754   1.797  51.684  1.00  0.00    -0.258 OA
ENDBRANCH   5  20
BRANCH   4  23
ATOM     23  O   UNL     1      18.515  -1.243  53.892  1.00  0.00    -0.502 OA
ATOM     24  H   UNL     1      17.866  -0.554  53.671  1.00  0.00    +0.293 HD
ENDBRANCH   4  23
TORSDOF 4
ENDMDL
MODEL 3
REMARK VINA RESULT:    -8.393      1.557      2.379
REMARK INTER + INTRA:         -10.926
REMARK INTER:                 -10.147
REMARK INTRA:                  -0.779
REMARK UNBOUND:                -0.816
REMARK SMILES Cc1cc(-c2ccc(O)c([N+](=O)[O-])c2)[nH]c1-c1ccccc1
REMARK SMILES IDX 5 1 6 2 7 3 8 4 10 5 14 6 4 7 2 8 3 9 16 10 15 11 1 12 17 14
REMARK SMILES IDX 18 15 22 16 19 17 21 18 20 19 11 20 12 21 13 22 9 23
REMARK H PARENT 15 13 9 24
ROOT
ATOM      1  C   UNL     1      24.373   0.910  52.558  1.00  0.00    +0.005 A 
ATOM      2  C   UNL     1      25.625   0.528  53.069  1.00  0.00    +0.014 A 
ATOM      3  C   UNL     1      25.728  -0.344  54.162  1.00  0.00    +0.054 A 
ATOM      4  C   UNL     1      24.575  -0.844  54.760  1.00  0.00    +0.194 A 
ATOM      5  C   UNL     1      23.333  -0.462  54.257  1.00  0.00    +0.311 A 
ATOM      6  C   UNL     1      23.217   0.401  53.160  1.00  0.00    +0.100 A 
ENDROOT
BRANCH   1   7
ATOM      7  C   UNL     1      24.269   1.814  51.414  1.00  0.00    +0.046 A 
ATOM      8  C   UNL     1      23.635   3.001  49.570  1.00  0.00    -0.025 A 
ATOM      9  C   UNL     1      23.253   1.982  50.490  1.00  0.00    +0.032 A 
ATOM     10  C   UNL     1      24.889   3.448  49.962  1.00  0.00    +0.049 A 
ATOM     11  N   UNL     1      25.244   2.724  51.078  1.00  0.00    -0.354 N 
ATOM     12  C   UNL     1      22.820   3.486  48.424  1.00  0.00    +0.047 C 
ATOM     13  H   UNL     1      26.112   2.852  51.578  1.00  0.00    +0.167 HD
BRANCH  10  14
ATOM     14  C   UNL     1      25.772   4.464  49.394  1.00  0.00    -0.002 A 
ATOM     15  C   UNL     1      27.092   4.149  49.056  1.00  0.00    +0.010 A 
ATOM     16  C   UNL     1      25.311   5.772  49.188  1.00  0.00    +0.010 A 
ATOM     17  C   UNL     1      27.940   5.123  48.522  1.00  0.00    +0.001 A 
ATOM     18  C   UNL     1      26.158   6.744  48.653  1.00  0.00    +0.001 A 
ATOM     19  C   UNL     1      27.472   6.420  48.321  1.00  0.00    +0.000 A 
ENDBRANCH  10  14
ENDBRANCH   1   7
BRANCH   5  20
ATOM     20  N   UNL     1      22.115  -0.951  54.866  1.00  0.00    +0.066 N 
ATOM     21  O   UNL     1      22.054  -2.168  55.095  1.00  0.00    -0.258 OA
ATOM     22  O   UNL     1      21.205  -0.134  55.061  1.00  0.00    -0.258 OA
ENDBRANCH   5  20
BRANCH   4  23
ATOM     23  O   UNL     1      24.671  -1.716  55.804  1.00  0.00    -0.502 OA
ATOM     24  H   UNL     1      25.546  -2.140  55.805  1.00  0.00    +0.293 HD
ENDBRANCH   4  23
TORSDOF 4
ENDMDL
MODEL 4
REMARK VINA RESULT:    -8.219      3.103      5.814
REMARK INTER + INTRA:         -10.716
REMARK INTER:                 -10.210
REMARK INTRA:                  -0.506
REMARK UNBOUND:                -0.816
REMARK SMILES Cc1cc(-c2ccc(O)c([N+](=O)[O-])c2)[nH]c1-c1ccccc1
REMARK SMILES IDX 5 1 6 2 7 3 8 4 10 5 14 6 4 7 2 8 3 9 16 10 15 11 1 12 17 14
REMARK SMILES IDX 18 15 22 16 19 17 21 18 20 19 11 20 12 21 13 22 9 23
REMARK H PARENT 15 13 9 24
ROOT
ATOM      1  C   UNL     1      25.167   0.690  53.124  1.00  0.00    +0.005 A 
ATOM      2  C   UNL     1      25.574   1.642  52.175  1.00  0.00    +0.014 A 
ATOM      3  C   UNL     1      26.895   2.110  52.136  1.00  0.00    +0.054 A 
ATOM      4  C   UNL     1      27.827   1.631  53.052  1.00  0.00    +0.194 A 
ATOM      5  C   UNL     1      27.422   0.690  53.997  1.00  0.00    +0.311 A 
ATOM      6  C   UNL     1      26.108   0.207  54.041  1.00  0.00    +0.100 A 
ENDROOT
BRANCH   1   7
ATOM      7  C   UNL     1      23.790   0.197  53.158  1.00  0.00    +0.046 A 
ATOM      8  C   UNL     1      21.813  -0.845  53.623  1.00  0.00    -0.025 A 
ATOM      9  C   UNL     1      23.179  -0.709  54.005  1.00  0.00    +0.032 A 
ATOM     10  C   UNL     1      21.613   0.002  52.541  1.00  0.00    +0.049 A 
ATOM     11  N   UNL     1      22.814   0.622  52.286  1.00  0.00    -0.354 N 
ATOM     12  C   UNL     1      20.810  -1.721  54.284  1.00  0.00    +0.047 C 
ATOM     13  H   UNL     1      22.952   1.301  51.551  1.00  0.00    +0.167 HD
BRANCH  10  14
ATOM     14  C   UNL     1      20.424   0.270  51.735  1.00  0.00    -0.002 A 
ATOM     15  C   UNL     1      20.536   0.911  50.497  1.00  0.00    +0.010 A 
ATOM     16  C   UNL     1      19.154  -0.103  52.195  1.00  0.00    +0.010 A 
ATOM     17  C   UNL     1      19.400   1.178  49.730  1.00  0.00    +0.001 A 
ATOM     18  C   UNL     1      18.018   0.162  51.427  1.00  0.00    +0.001 A 
ATOM     19  C   UNL     1      18.141   0.803  50.196  1.00  0.00    +0.000 A 
ENDBRANCH  10  14
ENDBRANCH   1   7
BRANCH   5  20
ATOM     20  N   UNL     1      28.363   0.184  54.974  1.00  0.00    +0.066 N 
ATOM     21  O   UNL     1      29.389  -0.356  54.535  1.00  0.00    -0.258 OA
ATOM     22  O   UNL     1      28.050   0.274  56.169  1.00  0.00    -0.258 OA
ENDBRANCH   5  20
BRANCH   4  23
ATOM     23  O   UNL     1      29.119   2.062  52.999  1.00  0.00    -0.502 OA
ATOM     24  H   UNL     1      29.440   2.267  53.894  1.00  0.00    +0.293 HD
ENDBRANCH   4  23
TORSDOF 4
ENDMDL
MODEL 5
REMARK VINA RESULT:    -8.026      3.705      5.949
REMARK INTER + INTRA:         -10.484
REMARK INTER:                  -9.668
REMARK INTRA:                  -0.816
REMARK UNBOUND:                -0.816
REMARK SMILES Cc1cc(-c2ccc(O)c([N+](=O)[O-])c2)[nH]c1-c1ccccc1
REMARK SMILES IDX 5 1 6 2 7 3 8 4 10 5 14 6 4 7 2 8 3 9 16 10 15 11 1 12 17 14
REMARK SMILES IDX 18 15 22 16 19 17 21 18 20 19 11 20 12 21 13 22 9 23
REMARK H PARENT 15 13 9 24
ROOT
ATOM      1  C   UNL     1      25.339   0.550  52.945  1.00  0.00    +0.005 A 
ATOM      2  C   UNL     1      25.654  -0.808  52.773  1.00  0.00    +0.014 A 
ATOM      3  C   UNL     1      26.959  -1.281  52.970  1.00  0.00    +0.054 A 
ATOM      4  C   UNL     1      27.969  -0.396  53.340  1.00  0.00    +0.194 A 
ATOM      5  C   UNL     1      27.656   0.952  53.506  1.00  0.00    +0.311 A 
ATOM      6  C   UNL     1      26.355   1.435  53.322  1.00  0.00    +0.100 A 
ENDROOT
BRANCH   1   7
ATOM      7  C   UNL     1      23.975   1.040  52.746  1.00  0.00    +0.046 A 
ATOM      8  C   UNL     1      22.084   2.270  52.397  1.00  0.00    -0.025 A 
ATOM      9  C   UNL     1      23.501   2.323  52.544  1.00  0.00    +0.032 A 
ATOM     10  C   UNL     1      21.719   0.935  52.505  1.00  0.00    +0.049 A 
ATOM     11  N   UNL     1      22.874   0.216  52.706  1.00  0.00    -0.354 N 
ATOM     12  C   UNL     1      21.192   3.436  52.159  1.00  0.00    +0.047 C 
ATOM     13  H   UNL     1      22.901  -0.788  52.810  1.00  0.00    +0.167 HD
BRANCH  10  14
ATOM     14  C   UNL     1      20.411   0.287  52.445  1.00  0.00    -0.002 A 
ATOM     15  C   UNL     1      19.570   0.486  51.345  1.00  0.00    +0.010 A 
ATOM     16  C   UNL     1      19.977  -0.538  53.492  1.00  0.00    +0.010 A 
ATOM     17  C   UNL     1      18.315  -0.125  51.292  1.00  0.00    +0.001 A 
ATOM     18  C   UNL     1      18.724  -1.150  53.437  1.00  0.00    +0.001 A 
ATOM     19  C   UNL     1      17.893  -0.943  52.338  1.00  0.00    +0.000 A 
ENDBRANCH  10  14
ENDBRANCH   1   7
BRANCH   5  20
ATOM     20  N   UNL     1      28.686   1.900  53.875  1.00  0.00    +0.066 N 
ATOM     21  O   UNL     1      28.952   2.787  53.051  1.00  0.00    -0.258 OA
ATOM     22  O   UNL     1      29.265   1.722  54.956  1.00  0.00    -0.258 OA
ENDBRANCH   5  20
BRANCH   4  23
ATOM     23  O   UNL     1      29.232  -0.857  53.561  1.00  0.00    -0.502 OA
ATOM     24  H   UNL     1      29.800  -0.654  52.799  1.00  0.00    +0.293 HD
ENDBRANCH   4  23
TORSDOF 4
ENDMDL
MODEL 6
REMARK VINA RESULT:    -7.898      1.277      2.050
REMARK INTER + INTRA:         -10.330
REMARK INTER:                  -9.641
REMARK INTRA:                  -0.688
REMARK UNBOUND:                -0.816
REMARK SMILES Cc1cc(-c2ccc(O)c([N+](=O)[O-])c2)[nH]c1-c1ccccc1
REMARK SMILES IDX 5 1 6 2 7 3 8 4 10 5 14 6 4 7 2 8 3 9 16 10 15 11 1 12 17 14
REMARK SMILES IDX 18 15 22 16 19 17 21 18 20 19 11 20 12 21 13 22 9 23
REMARK H PARENT 15 13 9 24
ROOT
ATOM      1  C   UNL     1      25.403   1.867  52.165  1.00  0.00    +0.005 A 
ATOM      2  C   UNL     1      24.325   1.098  52.636  1.00  0.00    +0.014 A 
ATOM      3  C   UNL     1      24.496   0.168  53.671  1.00  0.00    +0.054 A 
ATOM      4  C   UNL     1      25.751  -0.007  54.246  1.00  0.00    +0.194 A 
ATOM      5  C   UNL     1      26.821   0.752  53.775  1.00  0.00    +0.311 A 
ATOM      6  C   UNL     1      26.662   1.691  52.749  1.00  0.00    +0.100 A 
ENDROOT
BRANCH   1   7
ATOM      7  C   UNL     1      25.221   2.842  51.090  1.00  0.00    +0.046 A 
ATOM      8  C   UNL     1      24.439   4.206  49.435  1.00  0.00    -0.025 A 
ATOM      9  C   UNL     1      24.091   3.193  50.375  1.00  0.00    +0.032 A 
ATOM     10  C   UNL     1      25.792   4.464  49.605  1.00  0.00    +0.049 A 
ATOM     11  N   UNL     1      26.237   3.638  50.612  1.00  0.00    -0.354 N 
ATOM     12  C   UNL     1      23.507   4.857  48.476  1.00  0.00    +0.047 C 
ATOM     13  H   UNL     1      27.189   3.623  50.948  1.00  0.00    +0.167 HD
BRANCH  10  14
ATOM     14  C   UNL     1      26.690   5.390  48.920  1.00  0.00    -0.002 A 
ATOM     15  C   UNL     1      26.251   6.670  48.563  1.00  0.00    +0.010 A 
ATOM     16  C   UNL     1      28.000   5.008  48.602  1.00  0.00    +0.010 A 
ATOM     17  C   UNL     1      27.105   7.553  47.898  1.00  0.00    +0.001 A 
ATOM     18  C   UNL     1      28.854   5.891  47.939  1.00  0.00    +0.001 A 
ATOM     19  C   UNL     1      28.406   7.163  47.587  1.00  0.00    +0.000 A 
ENDBRANCH  10  14
ENDBRANCH   1   7
BRANCH   5  20
ATOM     20  N   UNL     1      28.142   0.582  54.341  1.00  0.00    +0.066 N 
ATOM     21  O   UNL     1      28.225   0.583  55.578  1.00  0.00    -0.258 OA
ATOM     22  O   UNL     1      29.096   0.508  53.554  1.00  0.00    -0.258 OA
ENDBRANCH   5  20
BRANCH   4  23
ATOM     23  O   UNL     1      25.914  -0.890  55.272  1.00  0.00    -0.502 OA
ATOM     24  H   UNL     1      26.729  -1.404  55.144  1.00  0.00    +0.293 HD
ENDBRANCH   4  23
TORSDOF 4
ENDMDL
MODEL 7
REMARK VINA RESULT:    -7.777      3.513      6.275
REMARK INTER + INTRA:         -10.184
REMARK INTER:                  -9.732
REMARK INTRA:                  -0.452
REMARK UNBOUND:                -0.816
REMARK SMILES Cc1cc(-c2ccc(O)c([N+](=O)[O-])c2)[nH]c1-c1ccccc1
REMARK SMILES IDX 5 1 6 2 7 3 8 4 10 5 14 6 4 7 2 8 3 9 16 10 15 11 1 12 17 14
REMARK SMILES IDX 18 15 22 16 19 17 21 18 20 19 11 20 12 21 13 22 9 23
REMARK H PARENT 15 13 9 24
ROOT
ATOM      1  C   UNL     1      24.137   0.454  53.135  1.00  0.00    +0.005 A 
ATOM      2  C   UNL     1      24.305  -0.532  54.122  1.00  0.00    +0.014 A 
ATOM      3  C   UNL     1      25.499  -0.634  54.850  1.00  0.00    +0.054 A 
ATOM      4  C   UNL     1      26.544   0.250  54.595  1.00  0.00    +0.194 A 
ATOM      5  C   UNL     1      26.379   1.224  53.612  1.00  0.00    +0.311 A 
ATOM      6  C   UNL     1      25.188   1.343  52.885  1.00  0.00    +0.100 A 
ENDROOT
BRANCH   1   7
ATOM      7  C   UNL     1      22.888   0.563  52.382  1.00  0.00    +0.046 A 
ATOM      8  C   UNL     1      21.243   0.971  50.853  1.00  0.00    -0.025 A 
ATOM      9  C   UNL     1      22.628   1.130  51.148  1.00  0.00    +0.032 A 
ATOM     10  C   UNL     1      20.679   0.292  51.924  1.00  0.00    +0.049 A 
ATOM     11  N   UNL     1      21.690   0.051  52.826  1.00  0.00    -0.354 N 
ATOM     12  C   UNL     1      20.559   1.439  49.618  1.00  0.00    +0.047 C 
ATOM     13  H   UNL     1      21.560  -0.438  53.700  1.00  0.00    +0.167 HD
BRANCH  10  14
ATOM     14  C   UNL     1      19.306  -0.136  52.179  1.00  0.00    -0.002 A 
ATOM     15  C   UNL     1      19.021  -1.021  53.224  1.00  0.00    +0.010 A 
ATOM     16  C   UNL     1      18.256   0.326  51.374  1.00  0.00    +0.010 A 
ATOM     17  C   UNL     1      17.709  -1.439  53.462  1.00  0.00    +0.001 A 
ATOM     18  C   UNL     1      16.945  -0.091  51.613  1.00  0.00    +0.001 A 
ATOM     19  C   UNL     1      16.672  -0.974  52.656  1.00  0.00    +0.000 A 
ENDBRANCH  10  14
ENDBRANCH   1   7
BRANCH   5  20
ATOM     20  N   UNL     1      27.452   2.148  53.313  1.00  0.00    +0.066 N 
ATOM     21  O   UNL     1      27.721   2.324  52.116  1.00  0.00    -0.258 OA
ATOM     22  O   UNL     1      28.058   2.649  54.270  1.00  0.00    -0.258 OA
ENDBRANCH   5  20
BRANCH   4  23
ATOM     23  O   UNL     1      27.695   0.171  55.320  1.00  0.00    -0.502 OA
ATOM     24  H   UNL     1      27.731  -0.673  55.800  1.00  0.00    +0.293 HD
ENDBRANCH   4  23
TORSDOF 4
ENDMDL
MODEL 8
REMARK VINA RESULT:    -7.698      1.642      2.418
REMARK INTER + INTRA:         -10.089
REMARK INTER:                  -9.372
REMARK INTRA:                  -0.717
REMARK UNBOUND:                -0.816
REMARK SMILES Cc1cc(-c2ccc(O)c([N+](=O)[O-])c2)[nH]c1-c1ccccc1
REMARK SMILES IDX 5 1 6 2 7 3 8 4 10 5 14 6 4 7 2 8 3 9 16 10 15 11 1 12 17 14
REMARK SMILES IDX 18 15 22 16 19 17 21 18 20 19 11 20 12 21 13 22 9 23
REMARK H PARENT 15 13 9 24
ROOT
ATOM      1  C   UNL     1      24.955   1.535  52.204  1.00  0.00    +0.005 A 
ATOM      2  C   UNL     1      26.185   1.350  52.858  1.00  0.00    +0.014 A 
ATOM      3  C   UNL     1      26.319   0.425  53.903  1.00  0.00    +0.054 A 
ATOM      4  C   UNL     1      25.220  -0.326  54.310  1.00  0.00    +0.194 A 
ATOM      5  C   UNL     1      23.999  -0.138  53.665  1.00  0.00    +0.311 A 
ATOM      6  C   UNL     1      23.854   0.775  52.613  1.00  0.00    +0.100 A 
ENDROOT
BRANCH   1   7
ATOM      7  C   UNL     1      24.819   2.495  51.109  1.00  0.00    +0.046 A 
ATOM      8  C   UNL     1      24.119   3.804  49.375  1.00  0.00    -0.025 A 
ATOM      9  C   UNL     1      23.744   2.774  50.286  1.00  0.00    +0.032 A 
ATOM     10  C   UNL     1      25.431   4.144  49.672  1.00  0.00    +0.049 A 
ATOM     11  N   UNL     1      25.827   3.349  50.723  1.00  0.00    -0.354 N 
ATOM     12  C   UNL     1      23.246   4.396  48.327  1.00  0.00    +0.047 C 
ATOM     13  H   UNL     1      26.741   3.393  51.149  1.00  0.00    +0.167 HD
BRANCH  10  14
ATOM     14  C   UNL     1      26.333   5.121  49.068  1.00  0.00    -0.002 A 
ATOM     15  C   UNL     1      27.639   4.760  48.717  1.00  0.00    +0.010 A 
ATOM     16  C   UNL     1      25.907   6.436  48.837  1.00  0.00    +0.010 A 
ATOM     17  C   UNL     1      28.506   5.696  48.149  1.00  0.00    +0.001 A 
ATOM     18  C   UNL     1      26.773   7.371  48.267  1.00  0.00    +0.001 A 
ATOM     19  C   UNL     1      28.072   7.001  47.924  1.00  0.00    +0.000 A 
ENDBRANCH  10  14
ENDBRANCH   1   7
BRANCH   5  20
ATOM     20  N   UNL     1      22.833  -0.892  54.074  1.00  0.00    +0.066 N 
ATOM     21  O   UNL     1      22.065  -1.267  53.176  1.00  0.00    -0.258 OA
ATOM     22  O   UNL     1      22.657  -1.057  55.290  1.00  0.00    -0.258 OA
ENDBRANCH   5  20
BRANCH   4  23
ATOM     23  O   UNL     1      25.354  -1.246  55.306  1.00  0.00    -0.502 OA
ATOM     24  H   UNL     1      25.320  -0.808  56.173  1.00  0.00    +0.293 HD
ENDBRANCH   4  23
TORSDOF 4
ENDMDL
MODEL 9
REMARK VINA RESULT:    -7.679      3.553      6.105
REMARK INTER + INTRA:         -10.066
REMARK INTER:                  -9.327
REMARK INTRA:                  -0.739
REMARK UNBOUND:                -0.816
REMARK SMILES Cc1cc(-c2ccc(O)c([N+](=O)[O-])c2)[nH]c1-c1ccccc1
REMARK SMILES IDX 5 1 6 2 7 3 8 4 10 5 14 6 4 7 2 8 3 9 16 10 15 11 1 12 17 14
REMARK SMILES IDX 18 15 22 16 19 17 21 18 20 19 11 20 12 21 13 22 9 23
REMARK H PARENT 15 13 9 24
ROOT
ATOM      1  C   UNL     1      24.474   0.511  53.075  1.00  0.00    +0.005 A 
ATOM      2  C   UNL     1      25.422   0.283  52.063  1.00  0.00    +0.014 A 
ATOM      3  C   UNL     1      26.715  -0.165  52.367  1.00  0.00    +0.054 A 
ATOM      4  C   UNL     1      27.077  -0.387  53.693  1.00  0.00    +0.194 A 
ATOM      5  C   UNL     1      26.139  -0.156  54.696  1.00  0.00    +0.311 A 
ATOM      6  C   UNL     1      24.841   0.281  54.406  1.00  0.00    +0.100 A 
ENDROOT
BRANCH   1   7
ATOM      7  C   UNL     1      23.123   0.971  52.754  1.00  0.00    +0.046 A 
ATOM      8  C   UNL     1      21.252   2.152  52.193  1.00  0.00    -0.025 A 
ATOM      9  C   UNL     1      22.657   2.229  52.420  1.00  0.00    +0.032 A 
ATOM     10  C   UNL     1      20.887   0.827  52.385  1.00  0.00    +0.049 A 
ATOM     11  N   UNL     1      22.030   0.136  52.713  1.00  0.00    -0.354 N 
ATOM     12  C   UNL     1      20.372   3.287  51.807  1.00  0.00    +0.047 C 
ATOM     13  H   UNL     1      22.054  -0.856  52.900  1.00  0.00    +0.167 HD
BRANCH  10  14
ATOM     14  C   UNL     1      19.588   0.164  52.298  1.00  0.00    -0.002 A 
ATOM     15  C   UNL     1      19.161  -0.698  53.315  1.00  0.00    +0.010 A 
ATOM     16  C   UNL     1      18.753   0.374  51.192  1.00  0.00    +0.010 A 
ATOM     17  C   UNL     1      17.925  -1.341  53.228  1.00  0.00    +0.001 A 
ATOM     18  C   UNL     1      17.516  -0.267  51.107  1.00  0.00    +0.001 A 
ATOM     19  C   UNL     1      17.103  -1.124  52.124  1.00  0.00    +0.000 A 
ENDBRANCH  10  14
ENDBRANCH   1   7
BRANCH   5  20
ATOM     20  N   UNL     1      26.489  -0.363  56.085  1.00  0.00    +0.066 N 
ATOM     21  O   UNL     1      25.650  -0.936  56.795  1.00  0.00    -0.258 OA
ATOM     22  O   UNL     1      27.572   0.097  56.476  1.00  0.00    -0.258 OA
ENDBRANCH   5  20
BRANCH   4  23
ATOM     23  O   UNL     1      28.324  -0.850  53.990  1.00  0.00    -0.502 OA
ATOM     24  H   UNL     1      28.290  -1.801  54.186  1.00  0.00    +0.293 HD
ENDBRANCH   4  23
TORSDOF 4
ENDMDL
