REMARK SMILES Cc1cc(-c2ccccn2)[nH]c1C=C(N)C(C#N)=C(C#N)C#N
REMARK SMILES IDX 13 1 14 2 12 3 2 4 3 5 4 6 11 7 1 8 5 10 6 11 10 12 7 13
REMARK SMILES IDX 9 14 8 15 15 16 16 19 17 20 19 21 18 22 20 23 22 24 21 25
REMARK SMILES IDX 23 26
REMARK H PARENT 11 9 15 17 15 18
ROOT
ATOM      1  C   UNL     1      -1.698  -0.418  -0.852  1.00  0.00    +0.053 C 
ATOM      2  C   UNL     1      -2.467   0.158   0.098  1.00  0.00    +0.054 C 
ENDROOT
BRANCH   1   3
ATOM      3  C   UNL     1      -0.369  -0.860  -0.629  1.00  0.00    +0.044 A 
ATOM      4  C   UNL     1       0.300  -2.031  -0.940  1.00  0.00    -0.025 A 
ATOM      5  C   UNL     1       1.643  -1.867  -0.488  1.00  0.00    +0.034 A 
ATOM      6  C   UNL     1       1.772  -0.604   0.063  1.00  0.00    +0.065 A 
ATOM      7  N   UNL     1       0.541  -0.001  -0.064  1.00  0.00    -0.353 N 
ATOM      8  C   UNL     1      -0.264  -3.237  -1.602  1.00  0.00    +0.046 C 
ATOM      9  H   UNL     1       0.359   0.946   0.251  1.00  0.00    +0.167 HD
BRANCH   6  10
ATOM     10  C   UNL     1       2.894   0.100   0.675  1.00  0.00    +0.086 A 
ATOM     11  C   UNL     1       4.170  -0.442   0.761  1.00  0.00    +0.030 A 
ATOM     12  N   UNL     1       2.578   1.328   1.155  1.00  0.00    -0.255 NA
ATOM     13  C   UNL     1       5.173   0.311   1.367  1.00  0.00    +0.004 A 
ATOM     14  C   UNL     1       3.573   2.035   1.735  1.00  0.00    +0.112 A 
ATOM     15  C   UNL     1       4.872   1.573   1.864  1.00  0.00    +0.020 A 
ENDBRANCH   6  10
ENDBRANCH   1   3
BRANCH   2  16
ATOM     16  N   UNL     1      -2.085   0.379   1.412  1.00  0.00    -0.398 N 
ATOM     17  H   UNL     1      -2.837   0.269   2.090  1.00  0.00    +0.156 HD
ATOM     18  H   UNL     1      -1.292  -0.206   1.689  1.00  0.00    +0.156 HD
ENDBRANCH   2  16
BRANCH   2  19
ATOM     19  C   UNL     1      -3.805   0.627  -0.277  1.00  0.00    +0.103 C 
ATOM     20  C   UNL     1      -4.822  -0.375  -0.366  1.00  0.00    +0.103 C 
ATOM     21  C   UNL     1      -4.072   1.928  -0.532  1.00  0.00    +0.149 C 
ATOM     22  N   UNL     1      -5.648  -1.185  -0.443  1.00  0.00    -0.192 NA
ATOM     23  C   UNL     1      -3.052   2.921  -0.466  1.00  0.00    +0.112 C 
ATOM     24  C   UNL     1      -5.379   2.363  -0.890  1.00  0.00    +0.112 C 
ATOM     25  N   UNL     1      -2.231   3.740  -0.433  1.00  0.00    -0.192 NA
ATOM     26  N   UNL     1      -6.446   2.712  -1.182  1.00  0.00    -0.192 NA
ENDBRANCH   2  19
TORSDOF 4
