REMARK SMILES O=[N+]([O-])c1cc(-c2ccc(O)c(O)c2)ccc1O
REMARK SMILES IDX 4 1 5 2 6 3 15 4 16 5 17 6 2 7 1 8 3 9 18 10 7 12 8 13 14 14
REMARK SMILES IDX 9 15 12 16 10 17 13 18 11 20
REMARK H PARENT 18 11 13 19 11 21
ROOT
ATOM      1  C   UNL     1      -2.656  -0.640   0.778  1.00  0.00    +0.311 A 
ATOM      2  C   UNL     1      -1.261  -0.727   0.674  1.00  0.00    +0.098 A 
ATOM      3  C   UNL     1      -0.576   0.088  -0.239  1.00  0.00    -0.011 A 
ATOM      4  C   UNL     1      -1.330   0.977  -1.028  1.00  0.00    +0.013 A 
ATOM      5  C   UNL     1      -2.724   1.061  -0.911  1.00  0.00    +0.054 A 
ATOM      6  C   UNL     1      -3.394   0.251   0.001  1.00  0.00    +0.194 A 
ENDROOT
BRANCH   1   7
ATOM      7  N   UNL     1      -3.321  -1.506   1.730  1.00  0.00    +0.066 N 
ATOM      8  O   UNL     1      -4.127  -2.335   1.287  1.00  0.00    -0.258 OA
ATOM      9  O   UNL     1      -2.982  -1.392   2.917  1.00  0.00    -0.258 OA
ENDBRANCH   1   7
BRANCH   6  10
ATOM     10  O   UNL     1      -4.745   0.356   0.142  1.00  0.00    -0.502 OA
ATOM     11  H   UNL     1      -5.103   0.966  -0.525  1.00  0.00    +0.293 HD
ENDBRANCH   6  10
BRANCH   3  12
ATOM     12  C   UNL     1       0.889   0.019  -0.365  1.00  0.00    -0.014 A 
ATOM     13  C   UNL     1       1.496  -0.201  -1.618  1.00  0.00    +0.013 A 
ATOM     14  C   UNL     1       1.718   0.172   0.763  1.00  0.00    +0.059 A 
ATOM     15  C   UNL     1       2.886  -0.267  -1.747  1.00  0.00    +0.051 A 
ATOM     16  C   UNL     1       3.102   0.106   0.626  1.00  0.00    +0.158 A 
ATOM     17  C   UNL     1       3.677  -0.112  -0.622  1.00  0.00    +0.157 A 
BRANCH  16  18
ATOM     18  O   UNL     1       3.943   0.253   1.695  1.00  0.00    -0.504 OA
ATOM     19  H   UNL     1       3.403   0.394   2.492  1.00  0.00    +0.293 HD
ENDBRANCH  16  18
BRANCH  17  20
ATOM     20  O   UNL     1       5.035  -0.174  -0.747  1.00  0.00    -0.504 OA
ATOM     21  H   UNL     1       5.372  -0.042   0.162  1.00  0.00    +0.293 HD
ENDBRANCH  17  20
ENDBRANCH   3  12
TORSDOF 5
