MODEL 1
REMARK VINA RESULT:    -7.565      0.000      0.000
REMARK INTER + INTRA:          -8.379
REMARK INTER:                  -8.229
REMARK INTRA:                  -0.151
REMARK UNBOUND:                -0.151
REMARK SMILES Nc1ccc2ncnc(-c3ccccc3)c2c1
REMARK SMILES IDX 2 1 3 2 4 3 5 4 6 5 7 6 8 7 9 8 16 9 17 10 1 11 10 14 11 15
REMARK SMILES IDX 15 16 12 17 14 18 13 19
REMARK H PARENT 1 12 1 13
ROOT
ATOM      1  C   UNL     1      28.601  -2.098  53.147  1.00  0.00    +0.032 A 
ATOM      2  C   UNL     1      29.816  -1.481  53.421  1.00  0.00    +0.028 A 
ATOM      3  C   UNL     1      29.873  -0.107  53.680  1.00  0.00    +0.031 A 
ATOM      4  C   UNL     1      28.732   0.682  53.712  1.00  0.00    +0.074 A 
ATOM      5  N   UNL     1      28.864   1.986  53.976  1.00  0.00    -0.236 NA
ATOM      6  C   UNL     1      27.738   2.709  54.028  1.00  0.00    +0.223 A 
ATOM      7  N   UNL     1      26.499   2.253  53.835  1.00  0.00    -0.236 NA
ATOM      8  C   UNL     1      26.387   0.936  53.553  1.00  0.00    +0.081 A 
ATOM      9  C   UNL     1      27.493   0.070  53.485  1.00  0.00    +0.029 A 
ATOM     10  C   UNL     1      27.440  -1.328  53.233  1.00  0.00    +0.038 A 
ENDROOT
BRANCH   1  11
ATOM     11  N   UNL     1      28.523  -3.486  53.018  1.00  0.00    -0.399 N 
ATOM     12  H   UNL     1      28.517  -3.819  52.060  1.00  0.00    +0.156 HD
ATOM     13  H   UNL     1      29.180  -3.998  53.600  1.00  0.00    +0.156 HD
ENDBRANCH   1  11
BRANCH   8  14
ATOM     14  C   UNL     1      25.001   0.498  53.319  1.00  0.00    +0.001 A 
ATOM     15  C   UNL     1      24.236   1.071  52.291  1.00  0.00    +0.010 A 
ATOM     16  C   UNL     1      24.414  -0.513  54.101  1.00  0.00    +0.010 A 
ATOM     17  C   UNL     1      22.919   0.666  52.065  1.00  0.00    +0.001 A 
ATOM     18  C   UNL     1      23.097  -0.920  53.875  1.00  0.00    +0.001 A 
ATOM     19  C   UNL     1      22.349  -0.328  52.860  1.00  0.00    +0.000 A 
ENDBRANCH   8  14
TORSDOF 2
ENDMDL
MODEL 2
REMARK VINA RESULT:    -7.348      2.329      5.751
REMARK INTER + INTRA:          -8.143
REMARK INTER:                  -7.746
REMARK INTRA:                  -0.397
REMARK UNBOUND:                -0.151
REMARK SMILES Nc1ccc2ncnc(-c3ccccc3)c2c1
REMARK SMILES IDX 2 1 3 2 4 3 5 4 6 5 7 6 8 7 9 8 16 9 17 10 1 11 10 14 11 15
REMARK SMILES IDX 15 16 12 17 14 18 13 19
REMARK H PARENT 1 12 1 13
ROOT
ATOM      1  C   UNL     1      23.582   1.655  51.476  1.00  0.00    +0.032 A 
ATOM      2  C   UNL     1      22.238   1.513  51.806  1.00  0.00    +0.028 A 
ATOM      3  C   UNL     1      21.850   0.685  52.864  1.00  0.00    +0.031 A 
ATOM      4  C   UNL     1      22.777   0.008  53.645  1.00  0.00    +0.074 A 
ATOM      5  N   UNL     1      22.331  -0.758  54.646  1.00  0.00    -0.236 NA
ATOM      6  C   UNL     1      23.255  -1.371  55.396  1.00  0.00    +0.223 A 
ATOM      7  N   UNL     1      24.578  -1.295  55.235  1.00  0.00    -0.236 NA
ATOM      8  C   UNL     1      25.009  -0.530  54.207  1.00  0.00    +0.081 A 
ATOM      9  C   UNL     1      24.137   0.175  53.358  1.00  0.00    +0.029 A 
ATOM     10  C   UNL     1      24.526   1.026  52.288  1.00  0.00    +0.038 A 
ENDROOT
BRANCH   1  11
ATOM     11  N   UNL     1      23.982   2.578  50.509  1.00  0.00    -0.399 N 
ATOM     12  H   UNL     1      23.218   3.053  50.039  1.00  0.00    +0.156 HD
ATOM     13  H   UNL     1      24.703   3.223  50.818  1.00  0.00    +0.156 HD
ENDBRANCH   1  11
BRANCH   8  14
ATOM     14  C   UNL     1      26.473  -0.511  54.060  1.00  0.00    +0.001 A 
ATOM     15  C   UNL     1      27.257   0.358  54.835  1.00  0.00    +0.010 A 
ATOM     16  C   UNL     1      27.126  -1.372  53.159  1.00  0.00    +0.010 A 
ATOM     17  C   UNL     1      28.647   0.385  54.698  1.00  0.00    +0.001 A 
ATOM     18  C   UNL     1      28.516  -1.346  53.023  1.00  0.00    +0.001 A 
ATOM     19  C   UNL     1      29.275  -0.465  53.789  1.00  0.00    +0.000 A 
ENDBRANCH   8  14
TORSDOF 2
ENDMDL
MODEL 3
REMARK VINA RESULT:    -7.339      1.951      5.243
REMARK INTER + INTRA:          -8.133
REMARK INTER:                  -7.901
REMARK INTRA:                  -0.232
REMARK UNBOUND:                -0.151
REMARK SMILES Nc1ccc2ncnc(-c3ccccc3)c2c1
REMARK SMILES IDX 2 1 3 2 4 3 5 4 6 5 7 6 8 7 9 8 16 9 17 10 1 11 10 14 11 15
REMARK SMILES IDX 15 16 12 17 14 18 13 19
REMARK H PARENT 1 12 1 13
ROOT
ATOM      1  C   UNL     1      23.383  -0.929  54.847  1.00  0.00    +0.032 A 
ATOM      2  C   UNL     1      22.251  -0.334  54.300  1.00  0.00    +0.028 A 
ATOM      3  C   UNL     1      22.368   0.589  53.256  1.00  0.00    +0.031 A 
ATOM      4  C   UNL     1      23.597   0.919  52.702  1.00  0.00    +0.074 A 
ATOM      5  N   UNL     1      23.629   1.802  51.699  1.00  0.00    -0.236 NA
ATOM      6  C   UNL     1      24.829   2.074  51.170  1.00  0.00    +0.223 A 
ATOM      7  N   UNL     1      25.995   1.550  51.553  1.00  0.00    -0.236 NA
ATOM      8  C   UNL     1      25.944   0.671  52.579  1.00  0.00    +0.081 A 
ATOM      9  C   UNL     1      24.743   0.295  53.208  1.00  0.00    +0.029 A 
ATOM     10  C   UNL     1      24.618  -0.650  54.262  1.00  0.00    +0.038 A 
ENDROOT
BRANCH   1  11
ATOM     11  N   UNL     1      23.262  -1.944  55.797  1.00  0.00    -0.399 N 
ATOM     12  H   UNL     1      23.809  -1.800  56.640  1.00  0.00    +0.156 HD
ATOM     13  H   UNL     1      22.304  -2.214  56.002  1.00  0.00    +0.156 HD
ENDBRANCH   1  11
BRANCH   8  14
ATOM     14  C   UNL     1      27.264   0.153  52.978  1.00  0.00    +0.001 A 
ATOM     15  C   UNL     1      27.580  -1.203  52.802  1.00  0.00    +0.010 A 
ATOM     16  C   UNL     1      28.244   1.001  53.525  1.00  0.00    +0.010 A 
ATOM     17  C   UNL     1      28.828  -1.703  53.181  1.00  0.00    +0.001 A 
ATOM     18  C   UNL     1      29.492   0.501  53.903  1.00  0.00    +0.001 A 
ATOM     19  C   UNL     1      29.782  -0.851  53.734  1.00  0.00    +0.000 A 
ENDBRANCH   8  14
TORSDOF 2
ENDMDL
MODEL 4
REMARK VINA RESULT:    -7.321      2.180      5.591
REMARK INTER + INTRA:          -8.114
REMARK INTER:                  -7.976
REMARK INTRA:                  -0.138
REMARK UNBOUND:                -0.151
REMARK SMILES Nc1ccc2ncnc(-c3ccccc3)c2c1
REMARK SMILES IDX 2 1 3 2 4 3 5 4 6 5 7 6 8 7 9 8 16 9 17 10 1 11 10 14 11 15
REMARK SMILES IDX 15 16 12 17 14 18 13 19
REMARK H PARENT 1 12 1 13
ROOT
ATOM      1  C   UNL     1      25.987   3.106  50.410  1.00  0.00    +0.032 A 
ATOM      2  C   UNL     1      24.615   3.310  50.308  1.00  0.00    +0.028 A 
ATOM      3  C   UNL     1      23.721   2.484  50.998  1.00  0.00    +0.031 A 
ATOM      4  C   UNL     1      24.158   1.463  51.830  1.00  0.00    +0.074 A 
ATOM      5  N   UNL     1      23.245   0.720  52.464  1.00  0.00    -0.236 NA
ATOM      6  C   UNL     1      23.704  -0.236  53.282  1.00  0.00    +0.223 A 
ATOM      7  N   UNL     1      24.986  -0.520  53.518  1.00  0.00    -0.236 NA
ATOM      8  C   UNL     1      25.895   0.230  52.856  1.00  0.00    +0.081 A 
ATOM      9  C   UNL     1      25.537   1.272  51.981  1.00  0.00    +0.029 A 
ATOM     10  C   UNL     1      26.441   2.122  51.287  1.00  0.00    +0.038 A 
ENDROOT
BRANCH   1  11
ATOM     11  N   UNL     1      26.883   4.006  49.830  1.00  0.00    -0.399 N 
ATOM     12  H   UNL     1      27.838   3.670  49.770  1.00  0.00    +0.156 HD
ATOM     13  H   UNL     1      26.562   4.411  48.955  1.00  0.00    +0.156 HD
ENDBRANCH   1  11
BRANCH   8  14
ATOM     14  C   UNL     1      27.289  -0.152  53.132  1.00  0.00    +0.001 A 
ATOM     15  C   UNL     1      27.735  -1.459  52.878  1.00  0.00    +0.010 A 
ATOM     16  C   UNL     1      28.214   0.780  53.637  1.00  0.00    +0.010 A 
ATOM     17  C   UNL     1      29.055  -1.831  53.141  1.00  0.00    +0.001 A 
ATOM     18  C   UNL     1      29.535   0.408  53.900  1.00  0.00    +0.001 A 
ATOM     19  C   UNL     1      29.953  -0.898  53.655  1.00  0.00    +0.000 A 
ENDBRANCH   8  14
TORSDOF 2
ENDMDL
MODEL 5
REMARK VINA RESULT:    -6.941      2.205      2.570
REMARK INTER + INTRA:          -7.701
REMARK INTER:                  -7.693
REMARK INTRA:                  -0.008
REMARK UNBOUND:                -0.151
REMARK SMILES Nc1ccc2ncnc(-c3ccccc3)c2c1
REMARK SMILES IDX 2 1 3 2 4 3 5 4 6 5 7 6 8 7 9 8 16 9 17 10 1 11 10 14 11 15
REMARK SMILES IDX 15 16 12 17 14 18 13 19
REMARK H PARENT 1 12 1 13
ROOT
ATOM      1  C   UNL     1      27.478   0.440  55.126  1.00  0.00    +0.032 A 
ATOM      2  C   UNL     1      28.581   1.086  54.580  1.00  0.00    +0.028 A 
ATOM      3  C   UNL     1      28.476   1.767  53.362  1.00  0.00    +0.031 A 
ATOM      4  C   UNL     1      27.274   1.858  52.674  1.00  0.00    +0.074 A 
ATOM      5  N   UNL     1      27.247   2.533  51.521  1.00  0.00    -0.236 NA
ATOM      6  C   UNL     1      26.064   2.625  50.900  1.00  0.00    +0.223 A 
ATOM      7  N   UNL     1      24.911   2.101  51.322  1.00  0.00    -0.236 NA
ATOM      8  C   UNL     1      24.961   1.408  52.481  1.00  0.00    +0.081 A 
ATOM      9  C   UNL     1      26.141   1.253  53.232  1.00  0.00    +0.029 A 
ATOM     10  C   UNL     1      26.252   0.572  54.475  1.00  0.00    +0.038 A 
ENDROOT
BRANCH   1  11
ATOM     11  N   UNL     1      27.546  -0.126  56.400  1.00  0.00    -0.399 N 
ATOM     12  H   UNL     1      26.897   0.269  57.072  1.00  0.00    +0.156 HD
ATOM     13  H   UNL     1      27.536  -1.142  56.407  1.00  0.00    +0.156 HD
ENDBRANCH   1  11
BRANCH   8  14
ATOM     14  C   UNL     1      23.668   0.827  52.877  1.00  0.00    +0.001 A 
ATOM     15  C   UNL     1      22.491   1.589  52.804  1.00  0.00    +0.010 A 
ATOM     16  C   UNL     1      23.571  -0.505  53.318  1.00  0.00    +0.010 A 
ATOM     17  C   UNL     1      21.261   1.048  53.182  1.00  0.00    +0.001 A 
ATOM     18  C   UNL     1      22.341  -1.048  53.694  1.00  0.00    +0.001 A 
ATOM     19  C   UNL     1      21.187  -0.270  53.630  1.00  0.00    +0.000 A 
ENDBRANCH   8  14
TORSDOF 2
ENDMDL
MODEL 6
REMARK VINA RESULT:    -6.859      2.676      6.297
REMARK INTER + INTRA:          -7.612
REMARK INTER:                  -7.206
REMARK INTRA:                  -0.405
REMARK UNBOUND:                -0.151
REMARK SMILES Nc1ccc2ncnc(-c3ccccc3)c2c1
REMARK SMILES IDX 2 1 3 2 4 3 5 4 6 5 7 6 8 7 9 8 16 9 17 10 1 11 10 14 11 15
REMARK SMILES IDX 15 16 12 17 14 18 13 19
REMARK H PARENT 1 12 1 13
ROOT
ATOM      1  C   UNL     1      23.307   4.051  52.462  1.00  0.00    +0.032 A 
ATOM      2  C   UNL     1      21.931   3.955  52.285  1.00  0.00    +0.028 A 
ATOM      3  C   UNL     1      21.290   2.713  52.357  1.00  0.00    +0.031 A 
ATOM      4  C   UNL     1      21.983   1.545  52.642  1.00  0.00    +0.074 A 
ATOM      5  N   UNL     1      21.302   0.396  52.704  1.00  0.00    -0.236 NA
ATOM      6  C   UNL     1      21.999  -0.705  53.010  1.00  0.00    +0.223 A 
ATOM      7  N   UNL     1      23.310  -0.765  53.252  1.00  0.00    -0.236 NA
ATOM      8  C   UNL     1      23.985   0.403  53.168  1.00  0.00    +0.081 A 
ATOM      9  C   UNL     1      23.362   1.628  52.869  1.00  0.00    +0.029 A 
ATOM     10  C   UNL     1      24.006   2.894  52.805  1.00  0.00    +0.038 A 
ENDROOT
BRANCH   1  11
ATOM     11  N   UNL     1      23.929   5.299  52.521  1.00  0.00    -0.399 N 
ATOM     12  H   UNL     1      24.915   5.289  52.282  1.00  0.00    +0.156 HD
ATOM     13  H   UNL     1      23.425   6.041  52.043  1.00  0.00    +0.156 HD
ENDBRANCH   1  11
BRANCH   8  14
ATOM     14  C   UNL     1      25.430   0.267  53.413  1.00  0.00    +0.001 A 
ATOM     15  C   UNL     1      25.949   0.401  54.710  1.00  0.00    +0.010 A 
ATOM     16  C   UNL     1      26.323  -0.017  52.364  1.00  0.00    +0.010 A 
ATOM     17  C   UNL     1      27.320   0.279  54.951  1.00  0.00    +0.001 A 
ATOM     18  C   UNL     1      27.694  -0.141  52.605  1.00  0.00    +0.001 A 
ATOM     19  C   UNL     1      28.191   0.011  53.897  1.00  0.00    +0.000 A 
ENDBRANCH   8  14
TORSDOF 2
ENDMDL
MODEL 7
REMARK VINA RESULT:    -6.823      3.829      6.381
REMARK INTER + INTRA:          -7.572
REMARK INTER:                  -7.467
REMARK INTRA:                  -0.106
REMARK UNBOUND:                -0.151
REMARK SMILES Nc1ccc2ncnc(-c3ccccc3)c2c1
REMARK SMILES IDX 2 1 3 2 4 3 5 4 6 5 7 6 8 7 9 8 16 9 17 10 1 11 10 14 11 15
REMARK SMILES IDX 15 16 12 17 14 18 13 19
REMARK H PARENT 1 12 1 13
ROOT
ATOM      1  C   UNL     1      23.785  -0.504  53.922  1.00  0.00    +0.032 A 
ATOM      2  C   UNL     1      22.991  -1.187  54.837  1.00  0.00    +0.028 A 
ATOM      3  C   UNL     1      21.602  -1.237  54.674  1.00  0.00    +0.031 A 
ATOM      4  C   UNL     1      20.969  -0.648  53.588  1.00  0.00    +0.074 A 
ATOM      5  N   UNL     1      19.639  -0.745  53.495  1.00  0.00    -0.236 NA
ATOM      6  C   UNL     1      19.066  -0.190  52.420  1.00  0.00    +0.223 A 
ATOM      7  N   UNL     1      19.697   0.456  51.436  1.00  0.00    -0.236 NA
ATOM      8  C   UNL     1      21.039   0.558  51.557  1.00  0.00    +0.081 A 
ATOM      9  C   UNL     1      21.756   0.005  52.633  1.00  0.00    +0.029 A 
ATOM     10  C   UNL     1      23.168   0.043  52.798  1.00  0.00    +0.038 A 
ENDROOT
BRANCH   1  11
ATOM     11  N   UNL     1      25.177  -0.562  54.009  1.00  0.00    -0.399 N 
ATOM     12  H   UNL     1      25.530  -1.265  54.651  1.00  0.00    +0.156 HD
ATOM     13  H   UNL     1      25.651  -0.589  53.111  1.00  0.00    +0.156 HD
ENDBRANCH   1  11
BRANCH   8  14
ATOM     14  C   UNL     1      21.674   1.308  50.461  1.00  0.00    +0.001 A 
ATOM     15  C   UNL     1      21.423   0.965  49.123  1.00  0.00    +0.010 A 
ATOM     16  C   UNL     1      22.529   2.395  50.720  1.00  0.00    +0.010 A 
ATOM     17  C   UNL     1      22.024   1.668  48.076  1.00  0.00    +0.001 A 
ATOM     18  C   UNL     1      23.129   3.099  49.674  1.00  0.00    +0.001 A 
ATOM     19  C   UNL     1      22.880   2.733  48.354  1.00  0.00    +0.000 A 
ENDBRANCH   8  14
TORSDOF 2
ENDMDL
MODEL 8
REMARK VINA RESULT:    -6.594      2.721      5.270
REMARK INTER + INTRA:          -7.323
REMARK INTER:                  -6.920
REMARK INTRA:                  -0.403
REMARK UNBOUND:                -0.151
REMARK SMILES Nc1ccc2ncnc(-c3ccccc3)c2c1
REMARK SMILES IDX 2 1 3 2 4 3 5 4 6 5 7 6 8 7 9 8 16 9 17 10 1 11 10 14 11 15
REMARK SMILES IDX 15 16 12 17 14 18 13 19
REMARK H PARENT 1 12 1 13
ROOT
ATOM      1  C   UNL     1      21.234  -0.631  54.043  1.00  0.00    +0.032 A 
ATOM      2  C   UNL     1      21.757  -1.597  54.895  1.00  0.00    +0.028 A 
ATOM      3  C   UNL     1      23.137  -1.677  55.116  1.00  0.00    +0.031 A 
ATOM      4  C   UNL     1      24.027  -0.786  54.532  1.00  0.00    +0.074 A 
ATOM      5  N   UNL     1      25.330  -0.920  54.797  1.00  0.00    -0.236 NA
ATOM      6  C   UNL     1      26.155  -0.024  54.240  1.00  0.00    +0.223 A 
ATOM      7  N   UNL     1      25.800   0.984  53.441  1.00  0.00    -0.236 NA
ATOM      8  C   UNL     1      24.480   1.092  53.171  1.00  0.00    +0.081 A 
ATOM      9  C   UNL     1      23.514   0.222  53.708  1.00  0.00    +0.029 A 
ATOM     10  C   UNL     1      22.110   0.306  53.496  1.00  0.00    +0.038 A 
ENDROOT
BRANCH   1  11
ATOM     11  N   UNL     1      19.853  -0.464  53.923  1.00  0.00    -0.399 N 
ATOM     12  H   UNL     1      19.345  -0.515  54.800  1.00  0.00    +0.156 HD
ATOM     13  H   UNL     1      19.576   0.338  53.364  1.00  0.00    +0.156 HD
ENDBRANCH   1  11
BRANCH   8  14
ATOM     14  C   UNL     1      24.153   2.202  52.260  1.00  0.00    +0.001 A 
ATOM     15  C   UNL     1      23.961   3.500  52.757  1.00  0.00    +0.010 A 
ATOM     16  C   UNL     1      24.045   1.997  50.873  1.00  0.00    +0.010 A 
ATOM     17  C   UNL     1      23.646   4.557  51.900  1.00  0.00    +0.001 A 
ATOM     18  C   UNL     1      23.732   3.054  50.015  1.00  0.00    +0.001 A 
ATOM     19  C   UNL     1      23.529   4.333  50.530  1.00  0.00    +0.000 A 
ENDBRANCH   8  14
TORSDOF 2
ENDMDL
MODEL 9
REMARK VINA RESULT:    -6.547      4.471      6.522
REMARK INTER + INTRA:          -7.272
REMARK INTER:                  -6.900
REMARK INTRA:                  -0.372
REMARK UNBOUND:                -0.151
REMARK SMILES Nc1ccc2ncnc(-c3ccccc3)c2c1
REMARK SMILES IDX 2 1 3 2 4 3 5 4 6 5 7 6 8 7 9 8 16 9 17 10 1 11 10 14 11 15
REMARK SMILES IDX 15 16 12 17 14 18 13 19
REMARK H PARENT 1 12 1 13
ROOT
ATOM      1  C   UNL     1      23.512   4.692  52.286  1.00  0.00    +0.032 A 
ATOM      2  C   UNL     1      23.331   5.269  51.034  1.00  0.00    +0.028 A 
ATOM      3  C   UNL     1      22.824   4.514  49.971  1.00  0.00    +0.031 A 
ATOM      4  C   UNL     1      22.448   3.187  50.127  1.00  0.00    +0.074 A 
ATOM      5  N   UNL     1      21.961   2.532  49.067  1.00  0.00    -0.236 NA
ATOM      6  C   UNL     1      21.582   1.263  49.262  1.00  0.00    +0.223 A 
ATOM      7  N   UNL     1      21.649   0.589  50.412  1.00  0.00    -0.236 NA
ATOM      8  C   UNL     1      22.159   1.262  51.468  1.00  0.00    +0.081 A 
ATOM      9  C   UNL     1      22.578   2.603  51.392  1.00  0.00    +0.029 A 
ATOM     10  C   UNL     1      23.085   3.377  52.471  1.00  0.00    +0.038 A 
ENDROOT
BRANCH   1  11
ATOM     11  N   UNL     1      23.893   5.473  53.379  1.00  0.00    -0.399 N 
ATOM     12  H   UNL     1      23.189   5.555  54.104  1.00  0.00    +0.156 HD
ATOM     13  H   UNL     1      24.809   5.246  53.756  1.00  0.00    +0.156 HD
ENDBRANCH   1  11
BRANCH   8  14
ATOM     14  C   UNL     1      22.237   0.457  52.698  1.00  0.00    +0.001 A 
ATOM     15  C   UNL     1      23.453  -0.121  53.095  1.00  0.00    +0.010 A 
ATOM     16  C   UNL     1      21.109   0.263  53.515  1.00  0.00    +0.010 A 
ATOM     17  C   UNL     1      23.536  -0.890  54.259  1.00  0.00    +0.001 A 
ATOM     18  C   UNL     1      21.192  -0.504  54.679  1.00  0.00    +0.001 A 
ATOM     19  C   UNL     1      22.404  -1.083  55.048  1.00  0.00    +0.000 A 
ENDBRANCH   8  14
TORSDOF 2
ENDMDL
