REMARK SMILES Cc1cccc(C=C2C(=O)N(C)c3ncnc(-c4cccc(C)c4)c32)c1
REMARK SMILES IDX 7 1 8 2 9 3 10 4 11 5 12 6 13 7 14 8 15 9 16 10 17 11 25 12
REMARK SMILES IDX 6 13 2 14 3 15 26 16 4 17 5 18 1 19 18 20 19 21 24 22 20 23
REMARK SMILES IDX 22 24 21 25 23 26
REMARK H PARENT
ROOT
ATOM      1  C   UNL     1       1.517   1.626   0.635  1.00  0.00    +0.022 C 
ATOM      2  C   UNL     1       0.434   2.340   0.288  1.00  0.00    +0.054 C 
ATOM      3  C   UNL     1       0.551   3.842   0.356  1.00  0.00    +0.260 C 
ATOM      4  O   UNL     1       1.577   4.488   0.466  1.00  0.00    -0.269 OA
ATOM      5  N   UNL     1      -0.753   4.293   0.300  1.00  0.00    -0.295 N 
ATOM      6  C   UNL     1      -1.167   5.668   0.343  1.00  0.00    +0.155 C 
ATOM      7  C   UNL     1      -1.652   3.239   0.099  1.00  0.00    +0.147 A 
ATOM      8  N   UNL     1      -2.970   3.416  -0.043  1.00  0.00    -0.218 NA
ATOM      9  C   UNL     1      -3.633   2.291  -0.318  1.00  0.00    +0.224 A 
ATOM     10  N   UNL     1      -3.087   1.077  -0.504  1.00  0.00    -0.236 NA
ATOM     11  C   UNL     1      -1.735   0.960  -0.383  1.00  0.00    +0.084 A 
ATOM     12  C   UNL     1      -0.970   2.031   0.009  1.00  0.00    +0.057 A 
ENDROOT
BRANCH   1  13
ATOM     13  C   UNL     1       1.606   0.195   0.931  1.00  0.00    -0.025 A 
ATOM     14  C   UNL     1       2.706  -1.949   0.573  1.00  0.00    -0.051 A 
ATOM     15  C   UNL     1       1.905  -2.514   1.571  1.00  0.00    +0.003 A 
ATOM     16  C   UNL     1       2.549  -0.592   0.258  1.00  0.00    +0.011 A 
ATOM     17  C   UNL     1       0.982  -1.730   2.264  1.00  0.00    +0.001 A 
ATOM     18  C   UNL     1       0.839  -0.378   1.951  1.00  0.00    +0.008 A 
ATOM     19  C   UNL     1       3.674  -2.798  -0.195  1.00  0.00    +0.044 C 
ENDBRANCH   1  13
BRANCH  11  20
ATOM     20  C   UNL     1      -1.224  -0.342  -0.832  1.00  0.00    +0.001 A 
ATOM     21  C   UNL     1      -0.283  -0.437  -1.871  1.00  0.00    +0.010 A 
ATOM     22  C   UNL     1      -1.726  -1.537  -0.286  1.00  0.00    +0.013 A 
ATOM     23  C   UNL     1       0.163  -1.680  -2.325  1.00  0.00    +0.001 A 
ATOM     24  C   UNL     1      -1.290  -2.791  -0.739  1.00  0.00    -0.050 A 
ATOM     25  C   UNL     1      -0.331  -2.851  -1.754  1.00  0.00    +0.003 A 
ATOM     26  C   UNL     1      -1.803  -4.047  -0.101  1.00  0.00    +0.044 C 
ENDBRANCH  11  20
TORSDOF 2
