REMARK SMILES Cc1cc(-c2cccc(Cl)c2)[nH]c1-c1ccccc1
REMARK SMILES IDX 5 1 6 2 7 3 8 4 9 5 10 6 11 7 4 8 2 9 3 10 13 11 12 12 1 13
REMARK SMILES IDX 14 15 15 16 19 17 16 18 18 19 17 20
REMARK H PARENT 12 14
ROOT
ATOM      1  C   UNL     1      -2.637   0.004  -0.194  1.00  0.00    -0.001 A 
ATOM      2  C   UNL     1      -3.649  -0.950  -0.011  1.00  0.00    +0.010 A 
ATOM      3  C   UNL     1      -4.938  -0.734  -0.508  1.00  0.00    +0.002 A 
ATOM      4  C   UNL     1      -5.231   0.443  -1.192  1.00  0.00    +0.020 A 
ATOM      5  C   UNL     1      -4.234   1.399  -1.373  1.00  0.00    +0.041 A 
ATOM      6 Cl   UNL     1      -4.596   2.859  -2.211  1.00  0.00    -0.084 Cl
ATOM      7  C   UNL     1      -2.946   1.188  -0.879  1.00  0.00    +0.030 A 
ENDROOT
BRANCH   1   8
ATOM      8  C   UNL     1      -1.292  -0.238   0.331  1.00  0.00    +0.046 A 
ATOM      9  C   UNL     1       0.549  -0.877   1.520  1.00  0.00    -0.025 A 
ATOM     10  C   UNL     1      -0.873  -0.913   1.463  1.00  0.00    +0.032 A 
ATOM     11  C   UNL     1       0.979  -0.180   0.399  1.00  0.00    +0.049 A 
ATOM     12  N   UNL     1      -0.147   0.192  -0.301  1.00  0.00    -0.354 N 
ATOM     13  C   UNL     1       1.391  -1.470   2.593  1.00  0.00    +0.047 C 
ATOM     14  H   UNL     1      -0.126   0.679  -1.185  1.00  0.00    +0.167 HD
BRANCH  11  15
ATOM     15  C   UNL     1       2.321   0.148  -0.078  1.00  0.00    -0.002 A 
ATOM     16  C   UNL     1       3.282  -0.857  -0.240  1.00  0.00    +0.010 A 
ATOM     17  C   UNL     1       2.662   1.471  -0.388  1.00  0.00    +0.010 A 
ATOM     18  C   UNL     1       4.562  -0.545  -0.705  1.00  0.00    +0.001 A 
ATOM     19  C   UNL     1       3.942   1.783  -0.851  1.00  0.00    +0.001 A 
ATOM     20  C   UNL     1       4.891   0.774  -1.011  1.00  0.00    +0.000 A 
ENDBRANCH  11  15
ENDBRANCH   1   8
TORSDOF 2
