MODEL 1
REMARK VINA RESULT:    -7.895      0.000      0.000
REMARK INTER + INTRA:         -11.709
REMARK INTER:                 -10.664
REMARK INTRA:                  -1.046
REMARK UNBOUND:                -1.046
REMARK SMILES Clc1cccc(-c2ncnc3ccc(N/N=N/CCN4CCOCC4)cc23)c1
REMARK SMILES IDX 16 1 17 2 15 3 14 5 7 6 8 7 27 8 9 9 26 10 11 11 10 12 12 13
REMARK SMILES IDX 13 14 6 15 2 16 3 17 28 18 4 19 5 20 1 21 18 22 19 23 20 24
REMARK SMILES IDX 21 25 25 26 22 27 24 28 23 29
REMARK H PARENT 15 4
ROOT
ATOM      1  N   UNL     1      21.988  -0.670  54.820  1.00  0.00    -0.075 NA
ATOM      2  N   UNL     1      22.514  -1.624  55.423  1.00  0.00    -0.170 NA
ENDROOT
BRANCH   1   3
ATOM      3  N   UNL     1      20.701  -1.017  54.647  1.00  0.00    -0.260 N 
ATOM      4  H   UNL     1      20.475  -1.969  54.913  1.00  0.00    +0.192 HD
BRANCH   3   5
ATOM      5  C   UNL     1      19.978  -0.475  53.574  1.00  0.00    +0.059 A 
ATOM      6  C   UNL     1      20.328   2.201  50.924  1.00  0.00    +0.082 A 
ATOM      7  N   UNL     1      19.680   2.653  49.828  1.00  0.00    -0.236 NA
ATOM      8  C   UNL     1      19.864   1.128  51.704  1.00  0.00    +0.029 A 
ATOM      9  C   UNL     1      18.534   2.035  49.530  1.00  0.00    +0.223 A 
ATOM     10  C   UNL     1      20.524   0.585  52.840  1.00  0.00    +0.040 A 
ATOM     11  C   UNL     1      18.653   0.572  51.278  1.00  0.00    +0.074 A 
ATOM     12  N   UNL     1      17.985   1.019  50.208  1.00  0.00    -0.236 NA
ATOM     13  C   UNL     1      18.130  -0.492  51.996  1.00  0.00    +0.031 A 
ATOM     14  C   UNL     1      18.777  -1.018  53.121  1.00  0.00    +0.030 A 
BRANCH   6  15
ATOM     15  C   UNL     1      21.552   2.954  51.233  1.00  0.00    +0.002 A 
ATOM     16  C   UNL     1      23.927   3.347  50.910  1.00  0.00    +0.041 A 
ATOM     17  C   UNL     1      23.895   4.399  51.824  1.00  0.00    +0.020 A 
ATOM     18  C   UNL     1      22.768   2.630  50.610  1.00  0.00    +0.030 A 
ATOM     19  C   UNL     1      22.692   4.744  52.439  1.00  0.00    +0.002 A 
ATOM     20  C   UNL     1      21.530   4.028  52.143  1.00  0.00    +0.010 A 
ATOM     21 Cl   UNL     1      25.413   2.928  50.148  1.00  0.00    -0.084 Cl
ENDBRANCH   6  15
ENDBRANCH   3   5
ENDBRANCH   1   3
BRANCH   2  22
ATOM     22  C   UNL     1      23.941  -1.382  55.708  1.00  0.00    +0.184 C 
BRANCH  22  23
ATOM     23  C   UNL     1      24.617  -0.756  54.478  1.00  0.00    +0.110 C 
BRANCH  23  24
ATOM     24  N   UNL     1      26.088  -0.893  54.465  1.00  0.00    -0.297 NA
ATOM     25  C   UNL     1      26.626  -1.006  53.091  1.00  0.00    +0.113 C 
ATOM     26  C   UNL     1      26.707   0.286  55.114  1.00  0.00    +0.113 C 
ATOM     27  C   UNL     1      28.164  -1.036  53.088  1.00  0.00    +0.175 C 
ATOM     28  C   UNL     1      28.242   0.222  55.066  1.00  0.00    +0.175 C 
ATOM     29  O   UNL     1      28.711   0.131  53.716  1.00  0.00    -0.379 OA
ENDBRANCH  23  24
ENDBRANCH  22  23
ENDBRANCH   2  22
TORSDOF 6
ENDMDL
MODEL 2
REMARK VINA RESULT:    -7.843      0.924      1.329
REMARK INTER + INTRA:         -11.640
REMARK INTER:                 -10.745
REMARK INTRA:                  -0.896
REMARK UNBOUND:                -1.046
REMARK SMILES Clc1cccc(-c2ncnc3ccc(N/N=N/CCN4CCOCC4)cc23)c1
REMARK SMILES IDX 16 1 17 2 15 3 14 5 7 6 8 7 27 8 9 9 26 10 11 11 10 12 12 13
REMARK SMILES IDX 13 14 6 15 2 16 3 17 28 18 4 19 5 20 1 21 18 22 19 23 20 24
REMARK SMILES IDX 21 25 25 26 22 27 24 28 23 29
REMARK H PARENT 15 4
ROOT
ATOM      1  N   UNL     1      21.830  -0.767  54.693  1.00  0.00    -0.075 NA
ATOM      2  N   UNL     1      22.465  -1.677  55.259  1.00  0.00    -0.170 NA
ENDROOT
BRANCH   1   3
ATOM      3  N   UNL     1      20.604  -1.267  54.468  1.00  0.00    -0.260 N 
ATOM      4  H   UNL     1      20.515  -2.266  54.616  1.00  0.00    +0.192 HD
BRANCH   3   5
ATOM      5  C   UNL     1      19.803  -0.706  53.462  1.00  0.00    +0.059 A 
ATOM      6  C   UNL     1      20.093   1.697  50.556  1.00  0.00    +0.082 A 
ATOM      7  N   UNL     1      19.350   2.157  49.525  1.00  0.00    -0.236 NA
ATOM      8  C   UNL     1      19.617   0.758  51.488  1.00  0.00    +0.029 A 
ATOM      9  C   UNL     1      18.103   1.687  49.447  1.00  0.00    +0.223 A 
ATOM     10  C   UNL     1      20.364   0.210  52.566  1.00  0.00    +0.040 A 
ATOM     11  C   UNL     1      18.294   0.350  51.287  1.00  0.00    +0.074 A 
ATOM     12  N   UNL     1      17.535   0.809  50.285  1.00  0.00    -0.236 NA
ATOM     13  C   UNL     1      17.752  -0.576  52.165  1.00  0.00    +0.031 A 
ATOM     14  C   UNL     1      18.488  -1.106  53.232  1.00  0.00    +0.030 A 
BRANCH   6  15
ATOM     15  C   UNL     1      21.436   2.291  50.621  1.00  0.00    +0.002 A 
ATOM     16  C   UNL     1      23.065   3.713  51.726  1.00  0.00    +0.041 A 
ATOM     17  C   UNL     1      24.010   3.424  50.743  1.00  0.00    +0.020 A 
ATOM     18  C   UNL     1      21.789   3.150  51.673  1.00  0.00    +0.030 A 
ATOM     19  C   UNL     1      23.680   2.560  49.700  1.00  0.00    +0.002 A 
ATOM     20  C   UNL     1      22.404   1.996  49.642  1.00  0.00    +0.010 A 
ATOM     21 Cl   UNL     1      23.477   4.776  53.015  1.00  0.00    -0.084 Cl
ENDBRANCH   6  15
ENDBRANCH   3   5
ENDBRANCH   1   3
BRANCH   2  22
ATOM     22  C   UNL     1      23.842  -1.269  55.594  1.00  0.00    +0.184 C 
BRANCH  22  23
ATOM     23  C   UNL     1      24.560  -0.776  54.328  1.00  0.00    +0.110 C 
BRANCH  23  24
ATOM     24  N   UNL     1      26.029  -0.934  54.368  1.00  0.00    -0.297 NA
ATOM     25  C   UNL     1      26.614  -1.064  53.015  1.00  0.00    +0.113 C 
ATOM     26  C   UNL     1      26.641   0.241  55.031  1.00  0.00    +0.113 C 
ATOM     27  C   UNL     1      28.151  -1.115  53.068  1.00  0.00    +0.175 C 
ATOM     28  C   UNL     1      28.175   0.154  55.039  1.00  0.00    +0.175 C 
ATOM     29  O   UNL     1      28.691   0.048  53.707  1.00  0.00    -0.379 OA
ENDBRANCH  23  24
ENDBRANCH  22  23
ENDBRANCH   2  22
TORSDOF 6
ENDMDL
MODEL 3
REMARK VINA RESULT:    -7.685      3.633      6.837
REMARK INTER + INTRA:         -11.426
REMARK INTER:                 -10.757
REMARK INTRA:                  -0.668
REMARK UNBOUND:                -1.046
REMARK SMILES Clc1cccc(-c2ncnc3ccc(N/N=N/CCN4CCOCC4)cc23)c1
REMARK SMILES IDX 16 1 17 2 15 3 14 5 7 6 8 7 27 8 9 9 26 10 11 11 10 12 12 13
REMARK SMILES IDX 13 14 6 15 2 16 3 17 28 18 4 19 5 20 1 21 18 22 19 23 20 24
REMARK SMILES IDX 21 25 25 26 22 27 24 28 23 29
REMARK H PARENT 15 4
ROOT
ATOM      1  N   UNL     1      23.009   2.900  50.613  1.00  0.00    -0.075 NA
ATOM      2  N   UNL     1      23.393   3.182  49.461  1.00  0.00    -0.170 NA
ENDROOT
BRANCH   1   3
ATOM      3  N   UNL     1      22.448   1.683  50.519  1.00  0.00    -0.260 N 
ATOM      4  H   UNL     1      21.632   1.633  49.918  1.00  0.00    +0.192 HD
BRANCH   3   5
ATOM      5  C   UNL     1      22.465   0.828  51.630  1.00  0.00    +0.059 A 
ATOM      6  C   UNL     1      24.838  -0.332  54.337  1.00  0.00    +0.082 A 
ATOM      7  N   UNL     1      24.826  -1.073  55.466  1.00  0.00    -0.236 NA
ATOM      8  C   UNL     1      23.697  -0.117  53.545  1.00  0.00    +0.029 A 
ATOM      9  C   UNL     1      23.655  -1.629  55.788  1.00  0.00    +0.223 A 
ATOM     10  C   UNL     1      23.642   0.685  52.372  1.00  0.00    +0.040 A 
ATOM     11  C   UNL     1      22.539  -0.756  53.999  1.00  0.00    +0.074 A 
ATOM     12  N   UNL     1      22.510  -1.512  55.103  1.00  0.00    -0.236 NA
ATOM     13  C   UNL     1      21.370  -0.592  53.271  1.00  0.00    +0.031 A 
ATOM     14  C   UNL     1      21.322   0.190  52.111  1.00  0.00    +0.030 A 
BRANCH   6  15
ATOM     15  C   UNL     1      26.165   0.208  54.005  1.00  0.00    +0.002 A 
ATOM     16  C   UNL     1      28.508  -0.132  53.464  1.00  0.00    +0.041 A 
ATOM     17  C   UNL     1      28.704   1.245  53.370  1.00  0.00    +0.020 A 
ATOM     18  C   UNL     1      27.250  -0.651  53.774  1.00  0.00    +0.030 A 
ATOM     19  C   UNL     1      27.633   2.111  53.581  1.00  0.00    +0.002 A 
ATOM     20  C   UNL     1      26.373   1.596  53.894  1.00  0.00    +0.010 A 
ATOM     21 Cl   UNL     1      29.831  -1.200  53.197  1.00  0.00    -0.084 Cl
ENDBRANCH   6  15
ENDBRANCH   3   5
ENDBRANCH   1   3
BRANCH   2  22
ATOM     22  C   UNL     1      24.058   4.497  49.404  1.00  0.00    +0.184 C 
BRANCH  22  23
ATOM     23  C   UNL     1      25.580   4.305  49.312  1.00  0.00    +0.110 C 
BRANCH  23  24
ATOM     24  N   UNL     1      26.298   5.457  48.728  1.00  0.00    -0.297 NA
ATOM     25  C   UNL     1      26.140   6.684  49.540  1.00  0.00    +0.113 C 
ATOM     26  C   UNL     1      27.744   5.147  48.627  1.00  0.00    +0.113 C 
ATOM     27  C   UNL     1      26.983   7.843  48.980  1.00  0.00    +0.175 C 
ATOM     28  C   UNL     1      28.545   6.341  48.085  1.00  0.00    +0.175 C 
ATOM     29  O   UNL     1      28.371   7.495  48.914  1.00  0.00    -0.379 OA
ENDBRANCH  23  24
ENDBRANCH  22  23
ENDBRANCH   2  22
TORSDOF 6
ENDMDL
MODEL 4
REMARK VINA RESULT:    -7.564      3.519      6.994
REMARK INTER + INTRA:         -11.263
REMARK INTER:                  -9.839
REMARK INTRA:                  -1.423
REMARK UNBOUND:                -1.046
REMARK SMILES Clc1cccc(-c2ncnc3ccc(N/N=N/CCN4CCOCC4)cc23)c1
REMARK SMILES IDX 16 1 17 2 15 3 14 5 7 6 8 7 27 8 9 9 26 10 11 11 10 12 12 13
REMARK SMILES IDX 13 14 6 15 2 16 3 17 28 18 4 19 5 20 1 21 18 22 19 23 20 24
REMARK SMILES IDX 21 25 25 26 22 27 24 28 23 29
REMARK H PARENT 15 4
ROOT
ATOM      1  N   UNL     1      18.418  -0.576  53.204  1.00  0.00    -0.075 NA
ATOM      2  N   UNL     1      17.407  -1.298  53.110  1.00  0.00    -0.170 NA
ENDROOT
BRANCH   1   3
ATOM      3  N   UNL     1      19.308  -1.292  53.911  1.00  0.00    -0.260 N 
ATOM      4  H   UNL     1      18.991  -1.584  54.829  1.00  0.00    +0.192 HD
BRANCH   3   5
ATOM      5  C   UNL     1      20.677  -1.018  53.776  1.00  0.00    +0.059 A 
ATOM      6  C   UNL     1      22.986   1.196  51.760  1.00  0.00    +0.082 A 
ATOM      7  N   UNL     1      24.292   1.536  51.701  1.00  0.00    -0.236 NA
ATOM      8  C   UNL     1      22.470   0.282  52.695  1.00  0.00    +0.029 A 
ATOM      9  C   UNL     1      25.095   0.927  52.578  1.00  0.00    +0.223 A 
ATOM     10  C   UNL     1      21.102  -0.081  52.828  1.00  0.00    +0.040 A 
ATOM     11  C   UNL     1      23.421  -0.279  53.552  1.00  0.00    +0.074 A 
ATOM     12  N   UNL     1      24.722   0.028  53.497  1.00  0.00    -0.236 NA
ATOM     13  C   UNL     1      22.989  -1.191  54.504  1.00  0.00    +0.031 A 
ATOM     14  C   UNL     1      21.642  -1.554  54.627  1.00  0.00    +0.030 A 
BRANCH   6  15
ATOM     15  C   UNL     1      22.163   1.858  50.737  1.00  0.00    +0.002 A 
ATOM     16  C   UNL     1      20.924   3.794  49.951  1.00  0.00    +0.041 A 
ATOM     17  C   UNL     1      20.588   3.123  48.776  1.00  0.00    +0.020 A 
ATOM     18  C   UNL     1      21.709   3.173  50.924  1.00  0.00    +0.030 A 
ATOM     19  C   UNL     1      21.044   1.823  48.568  1.00  0.00    +0.002 A 
ATOM     20  C   UNL     1      21.827   1.197  49.540  1.00  0.00    +0.010 A 
ATOM     21 Cl   UNL     1      20.364   5.402  50.203  1.00  0.00    -0.084 Cl
ENDBRANCH   6  15
ENDBRANCH   3   5
ENDBRANCH   1   3
BRANCH   2  22
ATOM     22  C   UNL     1      16.333  -0.651  52.332  1.00  0.00    +0.184 C 
BRANCH  22  23
ATOM     23  C   UNL     1      16.946   0.204  51.213  1.00  0.00    +0.110 C 
BRANCH  23  24
ATOM     24  N   UNL     1      16.504   1.614  51.221  1.00  0.00    -0.297 NA
ATOM     25  C   UNL     1      15.569   1.900  52.331  1.00  0.00    +0.113 C 
ATOM     26  C   UNL     1      17.679   2.507  51.357  1.00  0.00    +0.113 C 
ATOM     27  C   UNL     1      15.207   3.394  52.392  1.00  0.00    +0.175 C 
ATOM     28  C   UNL     1      17.265   3.984  51.436  1.00  0.00    +0.175 C 
ATOM     29  O   UNL     1      16.376   4.210  52.536  1.00  0.00    -0.379 OA
ENDBRANCH  23  24
ENDBRANCH  22  23
ENDBRANCH   2  22
TORSDOF 6
ENDMDL
MODEL 5
REMARK VINA RESULT:    -7.306      3.709      7.389
REMARK INTER + INTRA:         -10.913
REMARK INTER:                 -10.171
REMARK INTRA:                  -0.742
REMARK UNBOUND:                -1.046
REMARK SMILES Clc1cccc(-c2ncnc3ccc(N/N=N/CCN4CCOCC4)cc23)c1
REMARK SMILES IDX 16 1 17 2 15 3 14 5 7 6 8 7 27 8 9 9 26 10 11 11 10 12 12 13
REMARK SMILES IDX 13 14 6 15 2 16 3 17 28 18 4 19 5 20 1 21 18 22 19 23 20 24
REMARK SMILES IDX 21 25 25 26 22 27 24 28 23 29
REMARK H PARENT 15 4
ROOT
ATOM      1  N   UNL     1      23.735   3.205  50.271  1.00  0.00    -0.075 NA
ATOM      2  N   UNL     1      23.777   3.725  49.140  1.00  0.00    -0.170 NA
ENDROOT
BRANCH   1   3
ATOM      3  N   UNL     1      22.948   2.124  50.143  1.00  0.00    -0.260 N 
ATOM      4  H   UNL     1      22.129   2.257  49.561  1.00  0.00    +0.192 HD
BRANCH   3   5
ATOM      5  C   UNL     1      22.819   1.233  51.219  1.00  0.00    +0.059 A 
ATOM      6  C   UNL     1      24.877  -0.157  54.071  1.00  0.00    +0.082 A 
ATOM      7  N   UNL     1      24.724  -0.933  55.166  1.00  0.00    -0.236 NA
ATOM      8  C   UNL     1      23.823   0.153  53.194  1.00  0.00    +0.029 A 
ATOM      9  C   UNL     1      23.499  -1.426  55.367  1.00  0.00    +0.223 A 
ATOM     10  C   UNL     1      23.917   0.994  52.052  1.00  0.00    +0.040 A 
ATOM     11  C   UNL     1      22.595  -0.428  53.524  1.00  0.00    +0.074 A 
ATOM     12  N   UNL     1      22.426  -1.217  54.592  1.00  0.00    -0.236 NA
ATOM     13  C   UNL     1      21.505  -0.169  52.707  1.00  0.00    +0.031 A 
ATOM     14  C   UNL     1      21.603   0.652  51.576  1.00  0.00    +0.030 A 
BRANCH   6  15
ATOM     15  C   UNL     1      26.257   0.311  53.874  1.00  0.00    +0.002 A 
ATOM     16  C   UNL     1      28.621  -0.155  53.568  1.00  0.00    +0.041 A 
ATOM     17  C   UNL     1      28.897   1.210  53.495  1.00  0.00    +0.020 A 
ATOM     18  C   UNL     1      27.313  -0.606  53.752  1.00  0.00    +0.030 A 
ATOM     19  C   UNL     1      27.858   2.132  53.598  1.00  0.00    +0.002 A 
ATOM     20  C   UNL     1      26.548   1.685  53.784  1.00  0.00    +0.010 A 
ATOM     21 Cl   UNL     1      29.906  -1.291  53.434  1.00  0.00    -0.084 Cl
ENDBRANCH   6  15
ENDBRANCH   3   5
ENDBRANCH   1   3
BRANCH   2  22
ATOM     22  C   UNL     1      24.630   4.928  49.112  1.00  0.00    +0.184 C 
BRANCH  22  23
ATOM     23  C   UNL     1      24.548   5.654  50.464  1.00  0.00    +0.110 C 
BRANCH  23  24
ATOM     24  N   UNL     1      23.705   6.868  50.445  1.00  0.00    -0.297 NA
ATOM     25  C   UNL     1      23.722   7.540  49.127  1.00  0.00    +0.113 C 
ATOM     26  C   UNL     1      22.304   6.510  50.770  1.00  0.00    +0.113 C 
ATOM     27  C   UNL     1      22.754   8.736  49.092  1.00  0.00    +0.175 C 
ATOM     28  C   UNL     1      21.374   7.731  50.700  1.00  0.00    +0.175 C 
ATOM     29  O   UNL     1      21.414   8.333  49.401  1.00  0.00    -0.379 OA
ENDBRANCH  23  24
ENDBRANCH  22  23
ENDBRANCH   2  22
TORSDOF 6
ENDMDL
MODEL 6
REMARK VINA RESULT:    -7.280      2.948      5.916
REMARK INTER + INTRA:         -10.880
REMARK INTER:                 -10.002
REMARK INTRA:                  -0.877
REMARK UNBOUND:                -1.046
REMARK SMILES Clc1cccc(-c2ncnc3ccc(N/N=N/CCN4CCOCC4)cc23)c1
REMARK SMILES IDX 16 1 17 2 15 3 14 5 7 6 8 7 27 8 9 9 26 10 11 11 10 12 12 13
REMARK SMILES IDX 13 14 6 15 2 16 3 17 28 18 4 19 5 20 1 21 18 22 19 23 20 24
REMARK SMILES IDX 21 25 25 26 22 27 24 28 23 29
REMARK H PARENT 15 4
ROOT
ATOM      1  N   UNL     1      21.906   2.965  49.366  1.00  0.00    -0.075 NA
ATOM      2  N   UNL     1      21.707   3.663  48.354  1.00  0.00    -0.170 NA
ENDROOT
BRANCH   1   3
ATOM      3  N   UNL     1      20.859   2.127  49.439  1.00  0.00    -0.260 N 
ATOM      4  H   UNL     1      19.997   2.482  49.041  1.00  0.00    +0.192 HD
BRANCH   3   5
ATOM      5  C   UNL     1      20.736   1.270  50.543  1.00  0.00    +0.059 A 
ATOM      6  C   UNL     1      22.832  -0.083  53.386  1.00  0.00    +0.082 A 
ATOM      7  N   UNL     1      22.688  -0.823  54.507  1.00  0.00    -0.236 NA
ATOM      8  C   UNL     1      21.764   0.225  52.525  1.00  0.00    +0.029 A 
ATOM      9  C   UNL     1      21.458  -1.283  54.750  1.00  0.00    +0.223 A 
ATOM     10  C   UNL     1      21.849   1.031  51.357  1.00  0.00    +0.040 A 
ATOM     11  C   UNL     1      20.532  -0.319  52.900  1.00  0.00    +0.074 A 
ATOM     12  N   UNL     1      20.372  -1.073  53.995  1.00  0.00    -0.236 NA
ATOM     13  C   UNL     1      19.429  -0.060  52.101  1.00  0.00    +0.031 A 
ATOM     14  C   UNL     1      19.517   0.726  50.946  1.00  0.00    +0.030 A 
BRANCH   6  15
ATOM     15  C   UNL     1      24.216   0.349  53.144  1.00  0.00    +0.002 A 
ATOM     16  C   UNL     1      26.579  -0.164  52.917  1.00  0.00    +0.041 A 
ATOM     17  C   UNL     1      26.865   1.179  52.678  1.00  0.00    +0.020 A 
ATOM     18  C   UNL     1      25.266  -0.581  53.145  1.00  0.00    +0.030 A 
ATOM     19  C   UNL     1      25.831   2.113  52.658  1.00  0.00    +0.002 A 
ATOM     20  C   UNL     1      24.517   1.700  52.887  1.00  0.00    +0.010 A 
ATOM     21 Cl   UNL     1      27.857  -1.316  52.935  1.00  0.00    -0.084 Cl
ENDBRANCH   6  15
ENDBRANCH   3   5
ENDBRANCH   1   3
BRANCH   2  22
ATOM     22  C   UNL     1      22.794   4.632  48.123  1.00  0.00    +0.184 C 
BRANCH  22  23
ATOM     23  C   UNL     1      23.280   5.197  49.467  1.00  0.00    +0.110 C 
BRANCH  23  24
ATOM     24  N   UNL     1      24.749   5.197  49.627  1.00  0.00    -0.297 NA
ATOM     25  C   UNL     1      25.335   3.857  49.402  1.00  0.00    +0.113 C 
ATOM     26  C   UNL     1      25.357   6.142  48.661  1.00  0.00    +0.113 C 
ATOM     27  C   UNL     1      26.872   3.897  49.461  1.00  0.00    +0.175 C 
ATOM     28  C   UNL     1      26.891   6.129  48.743  1.00  0.00    +0.175 C 
ATOM     29  O   UNL     1      27.408   4.816  48.501  1.00  0.00    -0.379 OA
ENDBRANCH  23  24
ENDBRANCH  22  23
ENDBRANCH   2  22
TORSDOF 6
ENDMDL
MODEL 7
REMARK VINA RESULT:    -7.161      4.475      7.339
REMARK INTER + INTRA:         -10.718
REMARK INTER:                  -9.905
REMARK INTRA:                  -0.813
REMARK UNBOUND:                -1.046
REMARK SMILES Clc1cccc(-c2ncnc3ccc(N/N=N/CCN4CCOCC4)cc23)c1
REMARK SMILES IDX 16 1 17 2 15 3 14 5 7 6 8 7 27 8 9 9 26 10 11 11 10 12 12 13
REMARK SMILES IDX 13 14 6 15 2 16 3 17 28 18 4 19 5 20 1 21 18 22 19 23 20 24
REMARK SMILES IDX 21 25 25 26 22 27 24 28 23 29
REMARK H PARENT 15 4
ROOT
ATOM      1  N   UNL     1      24.181   5.810  51.079  1.00  0.00    -0.075 NA
ATOM      2  N   UNL     1      24.187   7.036  51.299  1.00  0.00    -0.170 NA
ENDROOT
BRANCH   1   3
ATOM      3  N   UNL     1      23.983   5.229  52.274  1.00  0.00    -0.260 N 
ATOM      4  H   UNL     1      24.746   5.334  52.933  1.00  0.00    +0.192 HD
BRANCH   3   5
ATOM      5  C   UNL     1      23.246   4.038  52.349  1.00  0.00    +0.059 A 
ATOM      6  C   UNL     1      23.745   0.393  53.227  1.00  0.00    +0.082 A 
ATOM      7  N   UNL     1      23.017  -0.731  53.400  1.00  0.00    -0.236 NA
ATOM      8  C   UNL     1      23.178   1.631  52.876  1.00  0.00    +0.029 A 
ATOM      9  C   UNL     1      21.703  -0.615  53.190  1.00  0.00    +0.223 A 
ATOM     10  C   UNL     1      23.889   2.852  52.721  1.00  0.00    +0.040 A 
ATOM     11  C   UNL     1      21.793   1.610  52.689  1.00  0.00    +0.074 A 
ATOM     12  N   UNL     1      21.055   0.502  52.835  1.00  0.00    -0.236 NA
ATOM     13  C   UNL     1      21.159   2.793  52.342  1.00  0.00    +0.031 A 
ATOM     14  C   UNL     1      21.863   3.993  52.180  1.00  0.00    +0.030 A 
BRANCH   6  15
ATOM     15  C   UNL     1      25.189   0.191  53.418  1.00  0.00    +0.002 A 
ATOM     16  C   UNL     1      27.128   0.064  54.875  1.00  0.00    +0.041 A 
ATOM     17  C   UNL     1      27.953  -0.199  53.783  1.00  0.00    +0.020 A 
ATOM     18  C   UNL     1      25.756   0.254  54.701  1.00  0.00    +0.030 A 
ATOM     19  C   UNL     1      27.402  -0.281  52.505  1.00  0.00    +0.002 A 
ATOM     20  C   UNL     1      26.030  -0.090  52.325  1.00  0.00    +0.010 A 
ATOM     21 Cl   UNL     1      27.810   0.159  56.453  1.00  0.00    -0.084 Cl
ENDBRANCH   6  15
ENDBRANCH   3   5
ENDBRANCH   1   3
BRANCH   2  22
ATOM     22  C   UNL     1      24.376   7.822  50.066  1.00  0.00    +0.184 C 
BRANCH  22  23
ATOM     23  C   UNL     1      25.592   8.748  50.221  1.00  0.00    +0.110 C 
BRANCH  23  24
ATOM     24  N   UNL     1      26.889   8.087  49.970  1.00  0.00    -0.297 NA
ATOM     25  C   UNL     1      26.877   7.288  48.724  1.00  0.00    +0.113 C 
ATOM     26  C   UNL     1      27.959   9.107  49.861  1.00  0.00    +0.113 C 
ATOM     27  C   UNL     1      28.266   6.698  48.419  1.00  0.00    +0.175 C 
ATOM     28  C   UNL     1      29.319   8.472  49.534  1.00  0.00    +0.175 C 
ATOM     29  O   UNL     1      29.258   7.726  48.313  1.00  0.00    -0.379 OA
ENDBRANCH  23  24
ENDBRANCH  22  23
ENDBRANCH   2  22
TORSDOF 6
ENDMDL
MODEL 8
REMARK VINA RESULT:    -7.146      3.125      6.214
REMARK INTER + INTRA:         -10.698
REMARK INTER:                 -10.148
REMARK INTRA:                  -0.550
REMARK UNBOUND:                -1.046
REMARK SMILES Clc1cccc(-c2ncnc3ccc(N/N=N/CCN4CCOCC4)cc23)c1
REMARK SMILES IDX 16 1 17 2 15 3 14 5 7 6 8 7 27 8 9 9 26 10 11 11 10 12 12 13
REMARK SMILES IDX 13 14 6 15 2 16 3 17 28 18 4 19 5 20 1 21 18 22 19 23 20 24
REMARK SMILES IDX 21 25 25 26 22 27 24 28 23 29
REMARK H PARENT 15 4
ROOT
ATOM      1  N   UNL     1      22.363   3.967  51.304  1.00  0.00    -0.075 NA
ATOM      2  N   UNL     1      21.947   5.141  51.288  1.00  0.00    -0.170 NA
ENDROOT
BRANCH   1   3
ATOM      3  N   UNL     1      21.266   3.195  51.374  1.00  0.00    -0.260 N 
ATOM      4  H   UNL     1      20.386   3.693  51.297  1.00  0.00    +0.192 HD
BRANCH   3   5
ATOM      5  C   UNL     1      21.274   2.055  52.192  1.00  0.00    +0.059 A 
ATOM      6  C   UNL     1      23.737  -0.188  53.982  1.00  0.00    +0.082 A 
ATOM      7  N   UNL     1      23.741  -1.221  54.853  1.00  0.00    -0.236 NA
ATOM      8  C   UNL     1      22.558   0.416  53.511  1.00  0.00    +0.029 A 
ATOM      9  C   UNL     1      22.542  -1.670  55.234  1.00  0.00    +0.223 A 
ATOM     10  C   UNL     1      22.494   1.528  52.628  1.00  0.00    +0.040 A 
ATOM     11  C   UNL     1      21.374  -0.152  53.992  1.00  0.00    +0.074 A 
ATOM     12  N   UNL     1      21.356  -1.189  54.839  1.00  0.00    -0.236 NA
ATOM     13  C   UNL     1      20.168   0.390  53.574  1.00  0.00    +0.031 A 
ATOM     14  C   UNL     1      20.109   1.479  52.696  1.00  0.00    +0.030 A 
BRANCH   6  15
ATOM     15  C   UNL     1      25.082   0.225  53.558  1.00  0.00    +0.002 A 
ATOM     16  C   UNL     1      27.450   0.501  54.021  1.00  0.00    +0.041 A 
ATOM     17  C   UNL     1      27.657   1.017  52.742  1.00  0.00    +0.020 A 
ATOM     18  C   UNL     1      26.176   0.103  54.428  1.00  0.00    +0.030 A 
ATOM     19  C   UNL     1      26.585   1.130  51.861  1.00  0.00    +0.002 A 
ATOM     20  C   UNL     1      25.307   0.735  52.265  1.00  0.00    +0.010 A 
ATOM     21 Cl   UNL     1      28.778   0.357  55.106  1.00  0.00    -0.084 Cl
ENDBRANCH   6  15
ENDBRANCH   3   5
ENDBRANCH   1   3
BRANCH   2  22
ATOM     22  C   UNL     1      23.047   6.118  51.191  1.00  0.00    +0.184 C 
BRANCH  22  23
ATOM     23  C   UNL     1      23.681   6.050  49.793  1.00  0.00    +0.110 C 
BRANCH  23  24
ATOM     24  N   UNL     1      25.126   5.739  49.801  1.00  0.00    -0.297 NA
ATOM     25  C   UNL     1      25.390   4.303  49.564  1.00  0.00    +0.113 C 
ATOM     26  C   UNL     1      25.812   6.522  48.746  1.00  0.00    +0.113 C 
ATOM     27  C   UNL     1      26.899   4.016  49.464  1.00  0.00    +0.175 C 
ATOM     28  C   UNL     1      27.309   6.184  48.671  1.00  0.00    +0.175 C 
ATOM     29  O   UNL     1      27.510   4.788  48.423  1.00  0.00    -0.379 OA
ENDBRANCH  23  24
ENDBRANCH  22  23
ENDBRANCH   2  22
TORSDOF 6
ENDMDL
MODEL 9
REMARK VINA RESULT:    -7.120      3.332      7.583
REMARK INTER + INTRA:         -10.662
REMARK INTER:                  -9.942
REMARK INTRA:                  -0.721
REMARK UNBOUND:                -1.046
REMARK SMILES Clc1cccc(-c2ncnc3ccc(N/N=N/CCN4CCOCC4)cc23)c1
REMARK SMILES IDX 16 1 17 2 15 3 14 5 7 6 8 7 27 8 9 9 26 10 11 11 10 12 12 13
REMARK SMILES IDX 13 14 6 15 2 16 3 17 28 18 4 19 5 20 1 21 18 22 19 23 20 24
REMARK SMILES IDX 21 25 25 26 22 27 24 28 23 29
REMARK H PARENT 15 4
ROOT
ATOM      1  N   UNL     1      23.086   3.619  50.347  1.00  0.00    -0.075 NA
ATOM      2  N   UNL     1      22.260   3.990  49.492  1.00  0.00    -0.170 NA
ENDROOT
BRANCH   1   3
ATOM      3  N   UNL     1      23.281   2.310  50.115  1.00  0.00    -0.260 N 
ATOM      4  H   UNL     1      23.027   1.996  49.185  1.00  0.00    +0.192 HD
BRANCH   3   5
ATOM      5  C   UNL     1      23.105   1.390  51.160  1.00  0.00    +0.059 A 
ATOM      6  C   UNL     1      25.063  -0.147  54.007  1.00  0.00    +0.082 A 
ATOM      7  N   UNL     1      24.865  -0.952  55.074  1.00  0.00    -0.236 NA
ATOM      8  C   UNL     1      24.037   0.221  53.119  1.00  0.00    +0.029 A 
ATOM      9  C   UNL     1      23.623  -1.415  55.234  1.00  0.00    +0.223 A 
ATOM     10  C   UNL     1      24.178   1.094  52.006  1.00  0.00    +0.040 A 
ATOM     11  C   UNL     1      22.786  -0.335  53.406  1.00  0.00    +0.074 A 
ATOM     12  N   UNL     1      22.573  -1.151  54.446  1.00  0.00    -0.236 NA
ATOM     13  C   UNL     1      21.721  -0.020  52.576  1.00  0.00    +0.031 A 
ATOM     14  C   UNL     1      21.866   0.833  51.475  1.00  0.00    +0.030 A 
BRANCH   6  15
ATOM     15  C   UNL     1      26.460   0.287  53.852  1.00  0.00    +0.002 A 
ATOM     16  C   UNL     1      28.819  -0.236  53.611  1.00  0.00    +0.041 A 
ATOM     17  C   UNL     1      29.131   1.121  53.554  1.00  0.00    +0.020 A 
ATOM     18  C   UNL     1      27.495  -0.655  53.754  1.00  0.00    +0.030 A 
ATOM     19  C   UNL     1      28.113   2.069  53.634  1.00  0.00    +0.002 A 
ATOM     20  C   UNL     1      26.787   1.654  53.779  1.00  0.00    +0.010 A 
ATOM     21 Cl   UNL     1      30.079  -1.404  53.507  1.00  0.00    -0.084 Cl
ENDBRANCH   6  15
ENDBRANCH   3   5
ENDBRANCH   1   3
BRANCH   2  22
ATOM     22  C   UNL     1      21.953   5.429  49.604  1.00  0.00    +0.184 C 
BRANCH  22  23
ATOM     23  C   UNL     1      20.583   5.617  50.273  1.00  0.00    +0.110 C 
BRANCH  23  24
ATOM     24  N   UNL     1      19.734   4.409  50.259  1.00  0.00    -0.297 NA
ATOM     25  C   UNL     1      19.575   3.821  51.608  1.00  0.00    +0.113 C 
ATOM     26  C   UNL     1      18.389   4.747  49.736  1.00  0.00    +0.113 C 
ATOM     27  C   UNL     1      18.600   2.631  51.593  1.00  0.00    +0.175 C 
ATOM     28  C   UNL     1      17.446   3.534  49.762  1.00  0.00    +0.175 C 
ATOM     29  O   UNL     1      17.314   3.015  51.090  1.00  0.00    -0.379 OA
ENDBRANCH  23  24
ENDBRANCH  22  23
ENDBRANCH   2  22
TORSDOF 6
ENDMDL
