MODEL 1
REMARK VINA RESULT:    -7.844      0.000      0.000
REMARK INTER + INTRA:          -9.185
REMARK INTER:                  -8.761
REMARK INTRA:                  -0.424
REMARK UNBOUND:                -0.424
REMARK SMILES Cc1cc(-c2ccccn2)[nH]c1-c1ccccc1
REMARK SMILES IDX 1 1 2 2 3 3 4 4 11 5 12 6 13 8 14 9 18 10 15 11 17 12 16 13
REMARK SMILES IDX 5 14 6 15 10 16 7 17 9 18 8 19
REMARK H PARENT 11 7
ROOT
ATOM      1  C   UNL     1      26.513   2.417  51.123  1.00  0.00    +0.047 C 
ATOM      2  C   UNL     1      25.666   1.443  51.862  1.00  0.00    -0.025 A 
ATOM      3  C   UNL     1      24.239   1.432  51.885  1.00  0.00    +0.034 A 
ATOM      4  C   UNL     1      23.819   0.392  52.694  1.00  0.00    +0.065 A 
ATOM      5  N   UNL     1      24.962  -0.219  53.154  1.00  0.00    -0.353 N 
ATOM      6  C   UNL     1      26.092   0.393  52.666  1.00  0.00    +0.049 A 
ATOM      7  H   UNL     1      24.942  -1.029  53.760  1.00  0.00    +0.167 HD
ENDROOT
BRANCH   6   8
ATOM      8  C   UNL     1      27.432  -0.085  53.004  1.00  0.00    -0.002 A 
ATOM      9  C   UNL     1      28.398   0.799  53.501  1.00  0.00    +0.010 A 
ATOM     10  C   UNL     1      27.767  -1.435  52.846  1.00  0.00    +0.010 A 
ATOM     11  C   UNL     1      29.676   0.342  53.830  1.00  0.00    +0.001 A 
ATOM     12  C   UNL     1      29.045  -1.893  53.176  1.00  0.00    +0.001 A 
ATOM     13  C   UNL     1      29.999  -1.005  53.667  1.00  0.00    +0.000 A 
ENDBRANCH   6   8
BRANCH   4  14
ATOM     14  C   UNL     1      22.498  -0.091  53.081  1.00  0.00    +0.086 A 
ATOM     15  C   UNL     1      22.306  -1.039  54.078  1.00  0.00    +0.030 A 
ATOM     16  N   UNL     1      21.476   0.466  52.382  1.00  0.00    -0.255 NA
ATOM     17  C   UNL     1      21.004  -1.438  54.376  1.00  0.00    +0.004 A 
ATOM     18  C   UNL     1      20.227   0.058  52.696  1.00  0.00    +0.112 A 
ATOM     19  C   UNL     1      19.943  -0.880  53.674  1.00  0.00    +0.020 A 
ENDBRANCH   4  14
TORSDOF 2
ENDMDL
MODEL 2
REMARK VINA RESULT:    -7.842      0.143      1.146
REMARK INTER + INTRA:          -9.183
REMARK INTER:                  -8.773
REMARK INTRA:                  -0.410
REMARK UNBOUND:                -0.424
REMARK SMILES Cc1cc(-c2ccccn2)[nH]c1-c1ccccc1
REMARK SMILES IDX 1 1 2 2 3 3 4 4 11 5 12 6 13 8 14 9 18 10 15 11 17 12 16 13
REMARK SMILES IDX 5 14 6 15 10 16 7 17 9 18 8 19
REMARK H PARENT 11 7
ROOT
ATOM      1  C   UNL     1      26.533   2.322  51.208  1.00  0.00    +0.047 C 
ATOM      2  C   UNL     1      25.670   1.347  51.927  1.00  0.00    -0.025 A 
ATOM      3  C   UNL     1      24.243   1.363  51.956  1.00  0.00    +0.034 A 
ATOM      4  C   UNL     1      23.806   0.313  52.741  1.00  0.00    +0.065 A 
ATOM      5  N   UNL     1      24.938  -0.331  53.181  1.00  0.00    -0.353 N 
ATOM      6  C   UNL     1      26.078   0.270  52.703  1.00  0.00    +0.049 A 
ATOM      7  H   UNL     1      24.905  -1.155  53.767  1.00  0.00    +0.167 HD
ENDROOT
BRANCH   6   8
ATOM      8  C   UNL     1      27.409  -0.242  53.024  1.00  0.00    -0.002 A 
ATOM      9  C   UNL     1      27.709  -1.601  52.856  1.00  0.00    +0.010 A 
ATOM     10  C   UNL     1      28.408   0.617  53.496  1.00  0.00    +0.010 A 
ATOM     11  C   UNL     1      28.982  -2.089  53.157  1.00  0.00    +0.001 A 
ATOM     12  C   UNL     1      29.683   0.129  53.796  1.00  0.00    +0.001 A 
ATOM     13  C   UNL     1      29.969  -1.224  53.627  1.00  0.00    +0.000 A 
ENDBRANCH   6   8
BRANCH   4  14
ATOM     14  C   UNL     1      22.477  -0.154  53.123  1.00  0.00    +0.086 A 
ATOM     15  C   UNL     1      22.272  -1.162  54.056  1.00  0.00    +0.030 A 
ATOM     16  N   UNL     1      21.461   0.482  52.485  1.00  0.00    -0.255 NA
ATOM     17  C   UNL     1      20.965  -1.539  54.354  1.00  0.00    +0.004 A 
ATOM     18  C   UNL     1      20.206   0.094  52.797  1.00  0.00    +0.112 A 
ATOM     19  C   UNL     1      19.910  -0.900  53.714  1.00  0.00    +0.020 A 
ENDBRANCH   4  14
TORSDOF 2
ENDMDL
MODEL 3
REMARK VINA RESULT:    -7.647      1.219      6.480
REMARK INTER + INTRA:          -8.966
REMARK INTER:                  -8.492
REMARK INTRA:                  -0.473
REMARK UNBOUND:                -0.424
REMARK SMILES Cc1cc(-c2ccccn2)[nH]c1-c1ccccc1
REMARK SMILES IDX 1 1 2 2 3 3 4 4 11 5 12 6 13 8 14 9 18 10 15 11 17 12 16 13
REMARK SMILES IDX 5 14 6 15 10 16 7 17 9 18 8 19
REMARK H PARENT 11 7
ROOT
ATOM      1  C   UNL     1      23.825   3.254  52.751  1.00  0.00    +0.047 C 
ATOM      2  C   UNL     1      24.585   1.993  52.964  1.00  0.00    -0.025 A 
ATOM      3  C   UNL     1      26.007   1.870  52.969  1.00  0.00    +0.034 A 
ATOM      4  C   UNL     1      26.335   0.543  53.178  1.00  0.00    +0.065 A 
ATOM      5  N   UNL     1      25.141  -0.129  53.300  1.00  0.00    -0.353 N 
ATOM      6  C   UNL     1      24.068   0.721  53.178  1.00  0.00    +0.049 A 
ATOM      7  H   UNL     1      25.090  -1.124  53.477  1.00  0.00    +0.167 HD
ENDROOT
BRANCH   6   8
ATOM      8  C   UNL     1      22.691   0.241  53.284  1.00  0.00    -0.002 A 
ATOM      9  C   UNL     1      21.769   0.494  52.260  1.00  0.00    +0.010 A 
ATOM     10  C   UNL     1      22.274  -0.484  54.405  1.00  0.00    +0.010 A 
ATOM     11  C   UNL     1      20.455   0.030  52.358  1.00  0.00    +0.001 A 
ATOM     12  C   UNL     1      20.960  -0.949  54.504  1.00  0.00    +0.001 A 
ATOM     13  C   UNL     1      20.051  -0.691  53.480  1.00  0.00    +0.000 A 
ENDBRANCH   6   8
BRANCH   4  14
ATOM     14  C   UNL     1      27.609  -0.159  53.278  1.00  0.00    +0.086 A 
ATOM     15  C   UNL     1      28.809   0.490  53.536  1.00  0.00    +0.030 A 
ATOM     16  N   UNL     1      27.518  -1.502  53.094  1.00  0.00    -0.255 NA
ATOM     17  C   UNL     1      29.975  -0.269  53.612  1.00  0.00    +0.004 A 
ATOM     18  C   UNL     1      28.666  -2.208  53.175  1.00  0.00    +0.112 A 
ATOM     19  C   UNL     1      29.905  -1.644  53.429  1.00  0.00    +0.020 A 
ENDBRANCH   4  14
TORSDOF 2
ENDMDL
MODEL 4
REMARK VINA RESULT:    -7.486      2.206      6.200
REMARK INTER + INTRA:          -8.785
REMARK INTER:                  -8.469
REMARK INTRA:                  -0.316
REMARK UNBOUND:                -0.424
REMARK SMILES Cc1cc(-c2ccccn2)[nH]c1-c1ccccc1
REMARK SMILES IDX 1 1 2 2 3 3 4 4 11 5 12 6 13 8 14 9 18 10 15 11 17 12 16 13
REMARK SMILES IDX 5 14 6 15 10 16 7 17 9 18 8 19
REMARK H PARENT 11 7
ROOT
ATOM      1  C   UNL     1      26.582  -0.979  53.026  1.00  0.00    +0.047 C 
ATOM      2  C   UNL     1      25.940   0.229  52.439  1.00  0.00    -0.025 A 
ATOM      3  C   UNL     1      26.602   1.227  51.663  1.00  0.00    +0.034 A 
ATOM      4  C   UNL     1      25.681   2.197  51.314  1.00  0.00    +0.065 A 
ATOM      5  N   UNL     1      24.484   1.800  51.863  1.00  0.00    -0.353 N 
ATOM      6  C   UNL     1      24.610   0.614  52.545  1.00  0.00    +0.049 A 
ATOM      7  H   UNL     1      23.628   2.327  51.745  1.00  0.00    +0.167 HD
ENDROOT
BRANCH   6   8
ATOM      8  C   UNL     1      23.469  -0.018  53.206  1.00  0.00    -0.002 A 
ATOM      9  C   UNL     1      23.638  -0.703  54.416  1.00  0.00    +0.010 A 
ATOM     10  C   UNL     1      22.189   0.058  52.645  1.00  0.00    +0.010 A 
ATOM     11  C   UNL     1      22.547  -1.302  55.051  1.00  0.00    +0.001 A 
ATOM     12  C   UNL     1      21.098  -0.539  53.280  1.00  0.00    +0.001 A 
ATOM     13  C   UNL     1      21.277  -1.220  54.482  1.00  0.00    +0.000 A 
ENDBRANCH   6   8
BRANCH   4  14
ATOM     14  C   UNL     1      25.784   3.429  50.541  1.00  0.00    +0.086 A 
ATOM     15  C   UNL     1      26.764   3.635  49.578  1.00  0.00    +0.030 A 
ATOM     16  N   UNL     1      24.839   4.356  50.845  1.00  0.00    -0.255 NA
ATOM     17  C   UNL     1      26.780   4.848  48.892  1.00  0.00    +0.004 A 
ATOM     18  C   UNL     1      24.882   5.520  50.161  1.00  0.00    +0.112 A 
ATOM     19  C   UNL     1      25.822   5.810  49.187  1.00  0.00    +0.020 A 
ENDBRANCH   4  14
TORSDOF 2
ENDMDL
MODEL 5
REMARK VINA RESULT:    -7.414      1.925      6.675
REMARK INTER + INTRA:          -8.705
REMARK INTER:                  -8.165
REMARK INTRA:                  -0.540
REMARK UNBOUND:                -0.424
REMARK SMILES Cc1cc(-c2ccccn2)[nH]c1-c1ccccc1
REMARK SMILES IDX 1 1 2 2 3 3 4 4 11 5 12 6 13 8 14 9 18 10 15 11 17 12 16 13
REMARK SMILES IDX 5 14 6 15 10 16 7 17 9 18 8 19
REMARK H PARENT 11 7
ROOT
ATOM      1  C   UNL     1      21.448  -0.807  54.660  1.00  0.00    +0.047 C 
ATOM      2  C   UNL     1      22.779  -0.446  54.101  1.00  0.00    -0.025 A 
ATOM      3  C   UNL     1      24.040  -0.855  54.628  1.00  0.00    +0.034 A 
ATOM      4  C   UNL     1      25.042  -0.305  53.850  1.00  0.00    +0.065 A 
ATOM      5  N   UNL     1      24.408   0.422  52.870  1.00  0.00    -0.353 N 
ATOM      6  C   UNL     1      23.041   0.352  52.995  1.00  0.00    +0.049 A 
ATOM      7  H   UNL     1      24.912   0.919  52.147  1.00  0.00    +0.167 HD
ENDROOT
BRANCH   6   8
ATOM      8  C   UNL     1      22.148   1.035  52.059  1.00  0.00    -0.002 A 
ATOM      9  C   UNL     1      21.948   2.419  52.149  1.00  0.00    +0.010 A 
ATOM     10  C   UNL     1      21.487   0.319  51.055  1.00  0.00    +0.010 A 
ATOM     11  C   UNL     1      21.099   3.072  51.251  1.00  0.00    +0.001 A 
ATOM     12  C   UNL     1      20.639   0.972  50.157  1.00  0.00    +0.001 A 
ATOM     13  C   UNL     1      20.445   2.348  50.256  1.00  0.00    +0.000 A 
ENDBRANCH   6   8
BRANCH   4  14
ATOM     14  C   UNL     1      26.498  -0.378  53.912  1.00  0.00    +0.086 A 
ATOM     15  C   UNL     1      27.253  -1.128  53.020  1.00  0.00    +0.030 A 
ATOM     16  N   UNL     1      27.048   0.350  54.918  1.00  0.00    -0.255 NA
ATOM     17  C   UNL     1      28.639  -1.134  53.161  1.00  0.00    +0.004 A 
ATOM     18  C   UNL     1      28.394   0.323  55.027  1.00  0.00    +0.112 A 
ATOM     19  C   UNL     1      29.223  -0.395  54.182  1.00  0.00    +0.020 A 
ENDBRANCH   4  14
TORSDOF 2
ENDMDL
MODEL 6
REMARK VINA RESULT:    -7.181      2.491      6.524
REMARK INTER + INTRA:          -8.445
REMARK INTER:                  -7.891
REMARK INTRA:                  -0.553
REMARK UNBOUND:                -0.424
REMARK SMILES Cc1cc(-c2ccccn2)[nH]c1-c1ccccc1
REMARK SMILES IDX 1 1 2 2 3 3 4 4 11 5 12 6 13 8 14 9 18 10 15 11 17 12 16 13
REMARK SMILES IDX 5 14 6 15 10 16 7 17 9 18 8 19
REMARK H PARENT 11 7
ROOT
ATOM      1  C   UNL     1      23.222   4.298  52.795  1.00  0.00    +0.047 C 
ATOM      2  C   UNL     1      24.113   3.126  52.582  1.00  0.00    -0.025 A 
ATOM      3  C   UNL     1      25.229   2.772  53.397  1.00  0.00    +0.034 A 
ATOM      4  C   UNL     1      25.817   1.636  52.871  1.00  0.00    +0.065 A 
ATOM      5  N   UNL     1      25.076   1.303  51.762  1.00  0.00    -0.353 N 
ATOM      6  C   UNL     1      24.038   2.183  51.565  1.00  0.00    +0.049 A 
ATOM      7  H   UNL     1      25.280   0.492  51.192  1.00  0.00    +0.167 HD
ENDROOT
BRANCH   6   8
ATOM      8  C   UNL     1      23.101   2.030  50.454  1.00  0.00    -0.002 A 
ATOM      9  C   UNL     1      23.268   2.768  49.275  1.00  0.00    +0.010 A 
ATOM     10  C   UNL     1      22.026   1.137  50.547  1.00  0.00    +0.010 A 
ATOM     11  C   UNL     1      22.375   2.618  48.211  1.00  0.00    +0.001 A 
ATOM     12  C   UNL     1      21.134   0.985  49.482  1.00  0.00    +0.001 A 
ATOM     13  C   UNL     1      21.309   1.726  48.315  1.00  0.00    +0.000 A 
ENDBRANCH   6   8
BRANCH   4  14
ATOM     14  C   UNL     1      26.969   0.838  53.275  1.00  0.00    +0.086 A 
ATOM     15  C   UNL     1      27.259  -0.402  52.719  1.00  0.00    +0.030 A 
ATOM     16  N   UNL     1      27.730   1.411  54.243  1.00  0.00    -0.255 NA
ATOM     17  C   UNL     1      28.383  -1.089  53.172  1.00  0.00    +0.004 A 
ATOM     18  C   UNL     1      28.812   0.719  54.659  1.00  0.00    +0.112 A 
ATOM     19  C   UNL     1      29.176  -0.520  54.160  1.00  0.00    +0.020 A 
ENDBRANCH   4  14
TORSDOF 2
ENDMDL
MODEL 7
REMARK VINA RESULT:    -6.898      3.288      6.559
REMARK INTER + INTRA:          -8.128
REMARK INTER:                  -7.747
REMARK INTRA:                  -0.381
REMARK UNBOUND:                -0.424
REMARK SMILES Cc1cc(-c2ccccn2)[nH]c1-c1ccccc1
REMARK SMILES IDX 1 1 2 2 3 3 4 4 11 5 12 6 13 8 14 9 18 10 15 11 17 12 16 13
REMARK SMILES IDX 5 14 6 15 10 16 7 17 9 18 8 19
REMARK H PARENT 11 7
ROOT
ATOM      1  C   UNL     1      21.043   0.661  49.886  1.00  0.00    +0.047 C 
ATOM      2  C   UNL     1      22.269   1.458  50.164  1.00  0.00    -0.025 A 
ATOM      3  C   UNL     1      22.847   2.425  49.288  1.00  0.00    +0.034 A 
ATOM      4  C   UNL     1      23.984   2.936  49.886  1.00  0.00    +0.065 A 
ATOM      5  N   UNL     1      24.097   2.298  51.099  1.00  0.00    -0.353 N 
ATOM      6  C   UNL     1      23.073   1.402  51.295  1.00  0.00    +0.049 A 
ATOM      7  H   UNL     1      24.841   2.499  51.755  1.00  0.00    +0.167 HD
ENDROOT
BRANCH   6   8
ATOM      8  C   UNL     1      22.969   0.610  52.519  1.00  0.00    -0.002 A 
ATOM      9  C   UNL     1      24.100  -0.013  53.062  1.00  0.00    +0.010 A 
ATOM     10  C   UNL     1      21.739   0.467  53.172  1.00  0.00    +0.010 A 
ATOM     11  C   UNL     1      24.002  -0.766  54.234  1.00  0.00    +0.001 A 
ATOM     12  C   UNL     1      21.641  -0.285  54.346  1.00  0.00    +0.001 A 
ATOM     13  C   UNL     1      22.772  -0.901  54.876  1.00  0.00    +0.000 A 
ENDBRANCH   6   8
BRANCH   4  14
ATOM     14  C   UNL     1      24.961   3.935  49.466  1.00  0.00    +0.086 A 
ATOM     15  C   UNL     1      24.610   5.235  49.126  1.00  0.00    +0.030 A 
ATOM     16  N   UNL     1      26.240   3.481  49.435  1.00  0.00    -0.255 NA
ATOM     17  C   UNL     1      25.617   6.117  48.737  1.00  0.00    +0.004 A 
ATOM     18  C   UNL     1      27.192   4.361  49.055  1.00  0.00    +0.112 A 
ATOM     19  C   UNL     1      26.933   5.674  48.700  1.00  0.00    +0.020 A 
ENDBRANCH   4  14
TORSDOF 2
ENDMDL
MODEL 8
REMARK VINA RESULT:    -6.754      1.872      4.224
REMARK INTER + INTRA:          -7.968
REMARK INTER:                  -7.586
REMARK INTRA:                  -0.381
REMARK UNBOUND:                -0.424
REMARK SMILES Cc1cc(-c2ccccn2)[nH]c1-c1ccccc1
REMARK SMILES IDX 1 1 2 2 3 3 4 4 11 5 12 6 13 8 14 9 18 10 15 11 17 12 16 13
REMARK SMILES IDX 5 14 6 15 10 16 7 17 9 18 8 19
REMARK H PARENT 11 7
ROOT
ATOM      1  C   UNL     1      27.364   1.451  52.586  1.00  0.00    +0.047 C 
ATOM      2  C   UNL     1      25.884   1.426  52.434  1.00  0.00    -0.025 A 
ATOM      3  C   UNL     1      24.997   0.520  53.089  1.00  0.00    +0.034 A 
ATOM      4  C   UNL     1      23.704   0.796  52.681  1.00  0.00    +0.065 A 
ATOM      5  N   UNL     1      23.800   1.848  51.800  1.00  0.00    -0.353 N 
ATOM      6  C   UNL     1      25.104   2.251  51.634  1.00  0.00    +0.049 A 
ATOM      7  H   UNL     1      22.991   2.266  51.359  1.00  0.00    +0.167 HD
ENDROOT
BRANCH   6   8
ATOM      8  C   UNL     1      25.458   3.363  50.754  1.00  0.00    -0.002 A 
ATOM      9  C   UNL     1      26.561   3.266  49.895  1.00  0.00    +0.010 A 
ATOM     10  C   UNL     1      24.698   4.538  50.749  1.00  0.00    +0.010 A 
ATOM     11  C   UNL     1      26.897   4.326  49.049  1.00  0.00    +0.001 A 
ATOM     12  C   UNL     1      25.033   5.598  49.902  1.00  0.00    +0.001 A 
ATOM     13  C   UNL     1      26.132   5.491  49.053  1.00  0.00    +0.000 A 
ENDBRANCH   6   8
BRANCH   4  14
ATOM     14  C   UNL     1      22.413   0.206  53.012  1.00  0.00    +0.086 A 
ATOM     15  C   UNL     1      22.268  -0.818  53.941  1.00  0.00    +0.030 A 
ATOM     16  N   UNL     1      21.366   0.742  52.333  1.00  0.00    -0.255 NA
ATOM     17  C   UNL     1      20.991  -1.316  54.189  1.00  0.00    +0.004 A 
ATOM     18  C   UNL     1      20.142   0.237  52.598  1.00  0.00    +0.112 A 
ATOM     19  C   UNL     1      19.906  -0.781  53.506  1.00  0.00    +0.020 A 
ENDBRANCH   4  14
TORSDOF 2
ENDMDL
MODEL 9
REMARK VINA RESULT:    -6.687      2.721      7.422
REMARK INTER + INTRA:          -7.893
REMARK INTER:                  -7.750
REMARK INTRA:                  -0.142
REMARK UNBOUND:                -0.424
REMARK SMILES Cc1cc(-c2ccccn2)[nH]c1-c1ccccc1
REMARK SMILES IDX 1 1 2 2 3 3 4 4 11 5 12 6 13 8 14 9 18 10 15 11 17 12 16 13
REMARK SMILES IDX 5 14 6 15 10 16 7 17 9 18 8 19
REMARK H PARENT 11 7
ROOT
ATOM      1  C   UNL     1      21.824  -1.156  54.702  1.00  0.00    +0.047 C 
ATOM      2  C   UNL     1      22.174  -0.279  53.552  1.00  0.00    -0.025 A 
ATOM      3  C   UNL     1      23.464   0.274  53.292  1.00  0.00    +0.034 A 
ATOM      4  C   UNL     1      23.389   1.048  52.148  1.00  0.00    +0.065 A 
ATOM      5  N   UNL     1      22.085   0.967  51.718  1.00  0.00    -0.353 N 
ATOM      6  C   UNL     1      21.330   0.170  52.545  1.00  0.00    +0.049 A 
ATOM      7  H   UNL     1      21.756   1.432  50.882  1.00  0.00    +0.167 HD
ENDROOT
BRANCH   6   8
ATOM      8  C   UNL     1      19.912  -0.079  52.288  1.00  0.00    -0.002 A 
ATOM      9  C   UNL     1      19.142  -0.812  53.200  1.00  0.00    +0.010 A 
ATOM     10  C   UNL     1      19.301   0.417  51.131  1.00  0.00    +0.010 A 
ATOM     11  C   UNL     1      17.786  -1.045  52.957  1.00  0.00    +0.001 A 
ATOM     12  C   UNL     1      17.945   0.186  50.888  1.00  0.00    +0.001 A 
ATOM     13  C   UNL     1      17.188  -0.546  51.801  1.00  0.00    +0.000 A 
ENDBRANCH   6   8
BRANCH   4  14
ATOM     14  C   UNL     1      24.375   1.839  51.420  1.00  0.00    +0.086 A 
ATOM     15  C   UNL     1      25.741   1.743  51.656  1.00  0.00    +0.030 A 
ATOM     16  N   UNL     1      23.841   2.676  50.494  1.00  0.00    -0.255 NA
ATOM     17  C   UNL     1      26.604   2.541  50.908  1.00  0.00    +0.004 A 
ATOM     18  C   UNL     1      24.705   3.435  49.786  1.00  0.00    +0.112 A 
ATOM     19  C   UNL     1      26.079   3.404  49.954  1.00  0.00    +0.020 A 
ENDBRANCH   4  14
TORSDOF 2
ENDMDL
