MODEL 1
REMARK VINA RESULT:    -7.484      0.000      0.000
REMARK INTER + INTRA:          -9.123
REMARK INTER:                  -9.234
REMARK INTRA:                   0.112
REMARK UNBOUND:                 0.112
REMARK SMILES N#CC(=Cc1cccc(Cl)c1)C(N)=C(C#N)C(N)=C(C#N)C#N
REMARK SMILES IDX 12 1 14 2 15 3 16 4 3 5 1 6 2 7 4 8 5 9 6 10 11 11 7 12 9 13
REMARK SMILES IDX 8 14 10 15 13 16 17 19 19 20 20 21 22 22 21 23 23 24 18 25
REMARK H PARENT 13 17 13 18 18 26 18 27
ROOT
ATOM      1  C   UNL     1      25.384   0.897  52.959  1.00  0.00    +0.070 C 
ATOM      2  C   UNL     1      25.943   0.141  53.944  1.00  0.00    +0.101 C 
ATOM      3  C   UNL     1      25.132  -0.617  54.856  1.00  0.00    +0.104 C 
ATOM      4  N   UNL     1      24.488  -1.251  55.584  1.00  0.00    -0.192 NA
ENDROOT
BRANCH   1   5
ATOM      5  C   UNL     1      23.921   0.991  52.820  1.00  0.00    +0.077 C 
ATOM      6  N   UNL     1      22.923   3.381  52.728  1.00  0.00    -0.192 NA
ATOM      7  C   UNL     1      23.354   2.304  52.778  1.00  0.00    +0.101 C 
ATOM      8  C   UNL     1      23.173  -0.127  52.716  1.00  0.00    +0.029 C 
BRANCH   8   9
ATOM      9  C   UNL     1      21.713  -0.152  52.587  1.00  0.00    -0.023 A 
ATOM     10  C   UNL     1      20.935  -0.646  53.640  1.00  0.00    +0.008 A 
ATOM     11  C   UNL     1      21.090   0.322  51.427  1.00  0.00    +0.028 A 
ATOM     12  C   UNL     1      19.542  -0.675  53.531  1.00  0.00    +0.002 A 
ATOM     13  C   UNL     1      19.700   0.292  51.327  1.00  0.00    +0.041 A 
ATOM     14  C   UNL     1      18.924  -0.205  52.373  1.00  0.00    +0.020 A 
ATOM     15 Cl   UNL     1      18.932   0.880  49.903  1.00  0.00    -0.084 Cl
ENDBRANCH   8   9
ENDBRANCH   1   5
BRANCH   1  16
ATOM     16  N   UNL     1      26.107   1.581  51.991  1.00  0.00    -0.397 N 
ATOM     17  H   UNL     1      26.513   2.464  52.296  1.00  0.00    +0.156 HD
ATOM     18  H   UNL     1      26.754   1.016  51.442  1.00  0.00    +0.156 HD
ENDBRANCH   1  16
BRANCH   2  19
ATOM     19  C   UNL     1      27.408   0.019  54.123  1.00  0.00    +0.081 C 
ATOM     20  C   UNL     1      28.107  -0.969  53.501  1.00  0.00    +0.153 C 
ATOM     21  C   UNL     1      27.480  -1.947  52.676  1.00  0.00    +0.113 C 
ATOM     22  C   UNL     1      29.515  -1.088  53.684  1.00  0.00    +0.113 C 
ATOM     23  N   UNL     1      26.946  -2.740  52.020  1.00  0.00    -0.192 NA
ATOM     24  N   UNL     1      30.662  -1.148  53.850  1.00  0.00    -0.192 NA
BRANCH  19  25
ATOM     25  N   UNL     1      27.976   0.949  54.992  1.00  0.00    -0.396 N 
ATOM     26  H   UNL     1      27.511   1.857  55.026  1.00  0.00    +0.156 HD
ATOM     27  H   UNL     1      28.993   1.036  54.976  1.00  0.00    +0.156 HD
ENDBRANCH  19  25
ENDBRANCH   2  19
TORSDOF 5
ENDMDL
MODEL 2
REMARK VINA RESULT:    -7.479      3.341      7.397
REMARK INTER + INTRA:          -9.116
REMARK INTER:                  -8.979
REMARK INTRA:                  -0.136
REMARK UNBOUND:                 0.112
REMARK SMILES N#CC(=Cc1cccc(Cl)c1)C(N)=C(C#N)C(N)=C(C#N)C#N
REMARK SMILES IDX 12 1 14 2 15 3 16 4 3 5 1 6 2 7 4 8 5 9 6 10 11 11 7 12 9 13
REMARK SMILES IDX 8 14 10 15 13 16 17 19 19 20 20 21 22 22 21 23 23 24 18 25
REMARK H PARENT 13 17 13 18 18 26 18 27
ROOT
ATOM      1  C   UNL     1      23.204  -0.327  53.244  1.00  0.00    +0.070 C 
ATOM      2  C   UNL     1      22.666   0.890  52.953  1.00  0.00    +0.101 C 
ATOM      3  C   UNL     1      23.452   2.090  53.017  1.00  0.00    +0.104 C 
ATOM      4  N   UNL     1      24.084   3.062  53.043  1.00  0.00    -0.192 NA
ENDROOT
BRANCH   1   5
ATOM      5  C   UNL     1      24.607  -0.447  53.672  1.00  0.00    +0.077 C 
ATOM      6  N   UNL     1      25.006  -1.216  56.115  1.00  0.00    -0.192 NA
ATOM      7  C   UNL     1      24.843  -0.861  55.022  1.00  0.00    +0.101 C 
ATOM      8  C   UNL     1      25.609  -0.194  52.805  1.00  0.00    +0.029 C 
BRANCH   8   9
ATOM      9  C   UNL     1      27.037  -0.269  53.125  1.00  0.00    -0.023 A 
ATOM     10  C   UNL     1      27.738  -1.456  52.882  1.00  0.00    +0.008 A 
ATOM     11  C   UNL     1      27.708   0.835  53.662  1.00  0.00    +0.028 A 
ATOM     12  C   UNL     1      29.100  -1.541  53.181  1.00  0.00    +0.002 A 
ATOM     13  C   UNL     1      29.068   0.742  53.956  1.00  0.00    +0.041 A 
ATOM     14  C   UNL     1      29.765  -0.441  53.719  1.00  0.00    +0.020 A 
ATOM     15 Cl   UNL     1      29.895   2.102  54.612  1.00  0.00    -0.084 Cl
ENDBRANCH   8   9
ENDBRANCH   1   5
BRANCH   1  16
ATOM     16  N   UNL     1      22.527  -1.533  53.117  1.00  0.00    -0.397 N 
ATOM     17  H   UNL     1      21.740  -1.658  53.752  1.00  0.00    +0.156 HD
ATOM     18  H   UNL     1      22.316  -1.823  52.163  1.00  0.00    +0.156 HD
ENDBRANCH   1  16
BRANCH   2  19
ATOM     19  C   UNL     1      21.259   1.058  52.520  1.00  0.00    +0.081 C 
ATOM     20  C   UNL     1      20.959   1.391  51.236  1.00  0.00    +0.153 C 
ATOM     21  C   UNL     1      21.962   1.622  50.252  1.00  0.00    +0.113 C 
ATOM     22  C   UNL     1      19.604   1.562  50.828  1.00  0.00    +0.113 C 
ATOM     23  N   UNL     1      22.797   1.819  49.470  1.00  0.00    -0.192 NA
ATOM     24  N   UNL     1      18.490   1.683  50.530  1.00  0.00    -0.192 NA
BRANCH  19  25
ATOM     25  N   UNL     1      20.309   0.893  53.528  1.00  0.00    -0.396 N 
ATOM     26  H   UNL     1      19.981   1.755  53.964  1.00  0.00    +0.156 HD
ATOM     27  H   UNL     1      20.484   0.156  54.212  1.00  0.00    +0.156 HD
ENDBRANCH  19  25
ENDBRANCH   2  19
TORSDOF 5
ENDMDL
MODEL 3
REMARK VINA RESULT:    -7.331      3.683      5.311
REMARK INTER + INTRA:          -8.934
REMARK INTER:                  -9.117
REMARK INTRA:                   0.184
REMARK UNBOUND:                 0.112
REMARK SMILES N#CC(=Cc1cccc(Cl)c1)C(N)=C(C#N)C(N)=C(C#N)C#N
REMARK SMILES IDX 12 1 14 2 15 3 16 4 3 5 1 6 2 7 4 8 5 9 6 10 11 11 7 12 9 13
REMARK SMILES IDX 8 14 10 15 13 16 17 19 19 20 20 21 22 22 21 23 23 24 18 25
REMARK H PARENT 13 17 13 18 18 26 18 27
ROOT
ATOM      1  C   UNL     1      23.358   3.742  51.395  1.00  0.00    +0.070 C 
ATOM      2  C   UNL     1      23.609   3.704  50.057  1.00  0.00    +0.101 C 
ATOM      3  C   UNL     1      22.958   2.753  49.200  1.00  0.00    +0.104 C 
ATOM      4  N   UNL     1      22.421   2.004  48.496  1.00  0.00    -0.192 NA
ENDROOT
BRANCH   1   5
ATOM      5  C   UNL     1      22.434   2.778  52.015  1.00  0.00    +0.077 C 
ATOM      6  N   UNL     1      20.005   3.594  52.402  1.00  0.00    -0.192 NA
ATOM      7  C   UNL     1      21.092   3.218  52.245  1.00  0.00    +0.101 C 
ATOM      8  C   UNL     1      22.854   1.534  52.325  1.00  0.00    +0.029 C 
BRANCH   8   9
ATOM      9  C   UNL     1      22.027   0.501  52.955  1.00  0.00    -0.023 A 
ATOM     10  C   UNL     1      22.567  -0.289  53.976  1.00  0.00    +0.008 A 
ATOM     11  C   UNL     1      20.701   0.304  52.553  1.00  0.00    +0.028 A 
ATOM     12  C   UNL     1      21.790  -1.276  54.587  1.00  0.00    +0.002 A 
ATOM     13  C   UNL     1      19.931  -0.683  53.169  1.00  0.00    +0.041 A 
ATOM     14  C   UNL     1      20.471  -1.474  54.182  1.00  0.00    +0.020 A 
ATOM     15 Cl   UNL     1      18.299  -0.923  52.679  1.00  0.00    -0.084 Cl
ENDBRANCH   8   9
ENDBRANCH   1   5
BRANCH   1  16
ATOM     16  N   UNL     1      23.883   4.690  52.263  1.00  0.00    -0.397 N 
ATOM     17  H   UNL     1      24.726   4.405  52.759  1.00  0.00    +0.156 HD
ATOM     18  H   UNL     1      23.940   5.640  51.898  1.00  0.00    +0.156 HD
ENDBRANCH   1  16
BRANCH   2  19
ATOM     19  C   UNL     1      24.532   4.653  49.390  1.00  0.00    +0.081 C 
ATOM     20  C   UNL     1      25.879   4.476  49.454  1.00  0.00    +0.153 C 
ATOM     21  C   UNL     1      26.476   3.403  50.177  1.00  0.00    +0.113 C 
ATOM     22  C   UNL     1      26.762   5.397  48.821  1.00  0.00    +0.113 C 
ATOM     23  N   UNL     1      26.940   2.530  50.782  1.00  0.00    -0.192 NA
ATOM     24  N   UNL     1      27.450   6.162  48.285  1.00  0.00    -0.192 NA
BRANCH  19  25
ATOM     25  N   UNL     1      23.914   5.728  48.754  1.00  0.00    -0.396 N 
ATOM     26  H   UNL     1      24.464   6.178  48.022  1.00  0.00    +0.156 HD
ATOM     27  H   UNL     1      23.436   6.406  49.351  1.00  0.00    +0.156 HD
ENDBRANCH  19  25
ENDBRANCH   2  19
TORSDOF 5
ENDMDL
MODEL 4
REMARK VINA RESULT:    -7.198      1.871      3.093
REMARK INTER + INTRA:          -8.770
REMARK INTER:                  -8.623
REMARK INTRA:                  -0.147
REMARK UNBOUND:                 0.112
REMARK SMILES N#CC(=Cc1cccc(Cl)c1)C(N)=C(C#N)C(N)=C(C#N)C#N
REMARK SMILES IDX 12 1 14 2 15 3 16 4 3 5 1 6 2 7 4 8 5 9 6 10 11 11 7 12 9 13
REMARK SMILES IDX 8 14 10 15 13 16 17 19 19 20 20 21 22 22 21 23 23 24 18 25
REMARK H PARENT 13 17 13 18 18 26 18 27
ROOT
ATOM      1  C   UNL     1      25.038   0.484  53.065  1.00  0.00    +0.070 C 
ATOM      2  C   UNL     1      26.255   0.558  52.459  1.00  0.00    +0.101 C 
ATOM      3  C   UNL     1      26.530   1.542  51.451  1.00  0.00    +0.104 C 
ATOM      4  N   UNL     1      26.771   2.348  50.652  1.00  0.00    -0.192 NA
ENDROOT
BRANCH   1   5
ATOM      5  C   UNL     1      23.947   1.393  52.677  1.00  0.00    +0.077 C 
ATOM      6  N   UNL     1      24.203   3.872  53.389  1.00  0.00    -0.192 NA
ATOM      7  C   UNL     1      24.069   2.763  53.073  1.00  0.00    +0.101 C 
ATOM      8  C   UNL     1      22.900   0.935  51.961  1.00  0.00    +0.029 C 
BRANCH   8   9
ATOM      9  C   UNL     1      21.756   1.745  51.532  1.00  0.00    -0.023 A 
ATOM     10  C   UNL     1      20.684   1.945  52.410  1.00  0.00    +0.008 A 
ATOM     11  C   UNL     1      21.729   2.327  50.260  1.00  0.00    +0.028 A 
ATOM     12  C   UNL     1      19.588   2.716  52.015  1.00  0.00    +0.002 A 
ATOM     13  C   UNL     1      20.632   3.097  49.875  1.00  0.00    +0.041 A 
ATOM     14  C   UNL     1      19.562   3.292  50.747  1.00  0.00    +0.020 A 
ATOM     15 Cl   UNL     1      20.601   3.817  48.312  1.00  0.00    -0.084 Cl
ENDBRANCH   8   9
ENDBRANCH   1   5
BRANCH   1  16
ATOM     16  N   UNL     1      24.733  -0.383  54.107  1.00  0.00    -0.397 N 
ATOM     17  H   UNL     1      25.092  -1.330  54.002  1.00  0.00    +0.156 HD
ATOM     18  H   UNL     1      24.867  -0.009  55.045  1.00  0.00    +0.156 HD
ENDBRANCH   1  16
BRANCH   2  19
ATOM     19  C   UNL     1      27.380  -0.338  52.816  1.00  0.00    +0.081 C 
ATOM     20  C   UNL     1      28.461   0.136  53.494  1.00  0.00    +0.153 C 
ATOM     21  C   UNL     1      28.587   1.504  53.871  1.00  0.00    +0.113 C 
ATOM     22  C   UNL     1      29.544  -0.727  53.826  1.00  0.00    +0.113 C 
ATOM     23  N   UNL     1      28.675   2.624  54.156  1.00  0.00    -0.192 NA
ATOM     24  N   UNL     1      30.404  -1.462  54.087  1.00  0.00    -0.192 NA
BRANCH  19  25
ATOM     25  N   UNL     1      27.253  -1.652  52.369  1.00  0.00    -0.396 N 
ATOM     26  H   UNL     1      27.470  -1.801  51.384  1.00  0.00    +0.156 HD
ATOM     27  H   UNL     1      26.417  -2.161  52.663  1.00  0.00    +0.156 HD
ENDBRANCH  19  25
ENDBRANCH   2  19
TORSDOF 5
ENDMDL
MODEL 5
REMARK VINA RESULT:    -7.164      3.782      7.725
REMARK INTER + INTRA:          -8.727
REMARK INTER:                  -8.290
REMARK INTRA:                  -0.437
REMARK UNBOUND:                 0.112
REMARK SMILES N#CC(=Cc1cccc(Cl)c1)C(N)=C(C#N)C(N)=C(C#N)C#N
REMARK SMILES IDX 12 1 14 2 15 3 16 4 3 5 1 6 2 7 4 8 5 9 6 10 11 11 7 12 9 13
REMARK SMILES IDX 8 14 10 15 13 16 17 19 19 20 20 21 22 22 21 23 23 24 18 25
REMARK H PARENT 13 17 13 18 18 26 18 27
ROOT
ATOM      1  C   UNL     1      23.185   2.488  50.946  1.00  0.00    +0.070 C 
ATOM      2  C   UNL     1      22.837   3.754  51.306  1.00  0.00    +0.101 C 
ATOM      3  C   UNL     1      23.392   4.379  52.473  1.00  0.00    +0.104 C 
ATOM      4  N   UNL     1      23.852   4.902  53.401  1.00  0.00    -0.192 NA
ENDROOT
BRANCH   1   5
ATOM      5  C   UNL     1      24.118   1.701  51.769  1.00  0.00    +0.077 C 
ATOM      6  N   UNL     1      23.058   0.165  53.567  1.00  0.00    -0.192 NA
ATOM      7  C   UNL     1      23.548   0.856  52.774  1.00  0.00    +0.101 C 
ATOM      8  C   UNL     1      25.447   1.774  51.551  1.00  0.00    +0.029 C 
BRANCH   8   9
ATOM      9  C   UNL     1      26.466   1.048  52.315  1.00  0.00    -0.023 A 
ATOM     10  C   UNL     1      27.276   1.742  53.221  1.00  0.00    +0.008 A 
ATOM     11  C   UNL     1      26.629  -0.333  52.156  1.00  0.00    +0.028 A 
ATOM     12  C   UNL     1      28.249   1.062  53.957  1.00  0.00    +0.002 A 
ATOM     13  C   UNL     1      27.602  -1.004  52.896  1.00  0.00    +0.041 A 
ATOM     14  C   UNL     1      28.413  -0.312  53.794  1.00  0.00    +0.020 A 
ATOM     15 Cl   UNL     1      27.800  -2.703  52.703  1.00  0.00    -0.084 Cl
ENDBRANCH   8   9
ENDBRANCH   1   5
BRANCH   1  16
ATOM     16  N   UNL     1      22.756   1.857  49.785  1.00  0.00    -0.397 N 
ATOM     17  H   UNL     1      22.737   0.839  49.826  1.00  0.00    +0.156 HD
ATOM     18  H   UNL     1      21.924   2.252  49.350  1.00  0.00    +0.156 HD
ENDBRANCH   1  16
BRANCH   2  19
ATOM     19  C   UNL     1      21.901   4.581  50.509  1.00  0.00    +0.081 C 
ATOM     20  C   UNL     1      20.559   4.527  50.732  1.00  0.00    +0.153 C 
ATOM     21  C   UNL     1      19.981   3.667  51.709  1.00  0.00    +0.113 C 
ATOM     22  C   UNL     1      19.663   5.317  49.957  1.00  0.00    +0.113 C 
ATOM     23  N   UNL     1      19.531   2.949  52.501  1.00  0.00    -0.192 NA
ATOM     24  N   UNL     1      18.964   5.981  49.312  1.00  0.00    -0.192 NA
BRANCH  19  25
ATOM     25  N   UNL     1      22.497   5.357  49.516  1.00  0.00    -0.396 N 
ATOM     26  H   UNL     1      22.687   4.873  48.639  1.00  0.00    +0.156 HD
ATOM     27  H   UNL     1      23.272   5.957  49.802  1.00  0.00    +0.156 HD
ENDBRANCH  19  25
ENDBRANCH   2  19
TORSDOF 5
ENDMDL
MODEL 6
REMARK VINA RESULT:    -7.102      1.264      2.436
REMARK INTER + INTRA:          -8.652
REMARK INTER:                  -8.380
REMARK INTRA:                  -0.272
REMARK UNBOUND:                 0.112
REMARK SMILES N#CC(=Cc1cccc(Cl)c1)C(N)=C(C#N)C(N)=C(C#N)C#N
REMARK SMILES IDX 12 1 14 2 15 3 16 4 3 5 1 6 2 7 4 8 5 9 6 10 11 11 7 12 9 13
REMARK SMILES IDX 8 14 10 15 13 16 17 19 19 20 20 21 22 22 21 23 23 24 18 25
REMARK H PARENT 13 17 13 18 18 26 18 27
ROOT
ATOM      1  C   UNL     1      25.292   0.838  53.297  1.00  0.00    +0.070 C 
ATOM      2  C   UNL     1      26.482   1.139  52.707  1.00  0.00    +0.101 C 
ATOM      3  C   UNL     1      26.541   1.886  51.482  1.00  0.00    +0.104 C 
ATOM      4  N   UNL     1      26.601   2.509  50.505  1.00  0.00    -0.192 NA
ENDROOT
BRANCH   1   5
ATOM      5  C   UNL     1      24.019   1.239  52.675  1.00  0.00    +0.077 C 
ATOM      6  N   UNL     1      23.423   3.759  52.792  1.00  0.00    -0.192 NA
ATOM      7  C   UNL     1      23.671   2.626  52.741  1.00  0.00    +0.101 C 
ATOM      8  C   UNL     1      23.244   0.325  52.057  1.00  0.00    +0.029 C 
BRANCH   8   9
ATOM      9  C   UNL     1      21.956   0.610  51.418  1.00  0.00    -0.023 A 
ATOM     10  C   UNL     1      21.929   1.248  50.173  1.00  0.00    +0.008 A 
ATOM     11  C   UNL     1      20.756   0.240  52.034  1.00  0.00    +0.028 A 
ATOM     12  C   UNL     1      20.709   1.525  49.551  1.00  0.00    +0.002 A 
ATOM     13  C   UNL     1      19.542   0.518  51.406  1.00  0.00    +0.041 A 
ATOM     14  C   UNL     1      19.514   1.160  50.169  1.00  0.00    +0.020 A 
ATOM     15 Cl   UNL     1      18.064   0.060  52.162  1.00  0.00    -0.084 Cl
ENDBRANCH   8   9
ENDBRANCH   1   5
BRANCH   1  16
ATOM     16  N   UNL     1      25.165   0.198  54.523  1.00  0.00    -0.397 N 
ATOM     17  H   UNL     1      25.218  -0.819  54.490  1.00  0.00    +0.156 HD
ATOM     18  H   UNL     1      25.708   0.597  55.288  1.00  0.00    +0.156 HD
ENDBRANCH   1  16
BRANCH   2  19
ATOM     19  C   UNL     1      27.785   0.753  53.296  1.00  0.00    +0.081 C 
ATOM     20  C   UNL     1      28.246  -0.524  53.195  1.00  0.00    +0.153 C 
ATOM     21  C   UNL     1      27.504  -1.556  52.552  1.00  0.00    +0.113 C 
ATOM     22  C   UNL     1      29.495  -0.891  53.772  1.00  0.00    +0.113 C 
ATOM     23  N   UNL     1      26.877  -2.383  52.035  1.00  0.00    -0.192 NA
ATOM     24  N   UNL     1      30.521  -1.152  54.247  1.00  0.00    -0.192 NA
BRANCH  19  25
ATOM     25  N   UNL     1      28.449   1.772  53.978  1.00  0.00    -0.396 N 
ATOM     26  H   UNL     1      27.860   2.543  54.292  1.00  0.00    +0.156 HD
ATOM     27  H   UNL     1      29.330   2.097  53.578  1.00  0.00    +0.156 HD
ENDBRANCH  19  25
ENDBRANCH   2  19
TORSDOF 5
ENDMDL
MODEL 7
REMARK VINA RESULT:    -7.019      3.696      7.962
REMARK INTER + INTRA:          -8.548
REMARK INTER:                  -8.210
REMARK INTRA:                  -0.338
REMARK UNBOUND:                 0.112
REMARK SMILES N#CC(=Cc1cccc(Cl)c1)C(N)=C(C#N)C(N)=C(C#N)C#N
REMARK SMILES IDX 12 1 14 2 15 3 16 4 3 5 1 6 2 7 4 8 5 9 6 10 11 11 7 12 9 13
REMARK SMILES IDX 8 14 10 15 13 16 17 19 19 20 20 21 22 22 21 23 23 24 18 25
REMARK H PARENT 13 17 13 18 18 26 18 27
ROOT
ATOM      1  C   UNL     1      21.131   0.523  53.137  1.00  0.00    +0.070 C 
ATOM      2  C   UNL     1      20.451   0.556  51.958  1.00  0.00    +0.101 C 
ATOM      3  C   UNL     1      21.136   0.694  50.703  1.00  0.00    +0.104 C 
ATOM      4  N   UNL     1      21.681   0.782  49.683  1.00  0.00    -0.192 NA
ENDROOT
BRANCH   1   5
ATOM      5  C   UNL     1      22.596   0.665  53.167  1.00  0.00    +0.077 C 
ATOM      6  N   UNL     1      23.535   3.031  52.677  1.00  0.00    -0.192 NA
ATOM      7  C   UNL     1      23.130   1.964  52.887  1.00  0.00    +0.101 C 
ATOM      8  C   UNL     1      23.378  -0.392  53.467  1.00  0.00    +0.029 C 
BRANCH   8   9
ATOM      9  C   UNL     1      24.842  -0.368  53.512  1.00  0.00    -0.023 A 
ATOM     10  C   UNL     1      25.573  -0.540  52.331  1.00  0.00    +0.008 A 
ATOM     11  C   UNL     1      25.517  -0.165  54.721  1.00  0.00    +0.028 A 
ATOM     12  C   UNL     1      26.970  -0.519  52.359  1.00  0.00    +0.002 A 
ATOM     13  C   UNL     1      26.911  -0.142  54.740  1.00  0.00    +0.041 A 
ATOM     14  C   UNL     1      27.639  -0.320  53.565  1.00  0.00    +0.020 A 
ATOM     15 Cl   UNL     1      27.741   0.112  56.227  1.00  0.00    -0.084 Cl
ENDBRANCH   8   9
ENDBRANCH   1   5
BRANCH   1  16
ATOM     16  N   UNL     1      20.541   0.303  54.375  1.00  0.00    -0.397 N 
ATOM     17  H   UNL     1      19.708   0.859  54.564  1.00  0.00    +0.156 HD
ATOM     18  H   UNL     1      20.435  -0.673  54.647  1.00  0.00    +0.156 HD
ENDBRANCH   1  16
BRANCH   2  19
ATOM     19  C   UNL     1      18.978   0.419  51.881  1.00  0.00    +0.081 C 
ATOM     20  C   UNL     1      18.181   1.514  51.746  1.00  0.00    +0.153 C 
ATOM     21  C   UNL     1      18.704   2.838  51.699  1.00  0.00    +0.113 C 
ATOM     22  C   UNL     1      16.765   1.377  51.684  1.00  0.00    +0.113 C 
ATOM     23  N   UNL     1      19.150   3.908  51.676  1.00  0.00    -0.192 NA
ATOM     24  N   UNL     1      15.616   1.226  51.627  1.00  0.00    -0.192 NA
BRANCH  19  25
ATOM     25  N   UNL     1      18.500  -0.885  52.002  1.00  0.00    -0.396 N 
ATOM     26  H   UNL     1      18.969  -1.459  52.703  1.00  0.00    +0.156 HD
ATOM     27  H   UNL     1      18.329  -1.396  51.135  1.00  0.00    +0.156 HD
ENDBRANCH  19  25
ENDBRANCH   2  19
TORSDOF 5
ENDMDL
MODEL 8
REMARK VINA RESULT:    -6.918      4.239      6.532
REMARK INTER + INTRA:          -8.424
REMARK INTER:                  -8.134
REMARK INTRA:                  -0.291
REMARK UNBOUND:                 0.112
REMARK SMILES N#CC(=Cc1cccc(Cl)c1)C(N)=C(C#N)C(N)=C(C#N)C#N
REMARK SMILES IDX 12 1 14 2 15 3 16 4 3 5 1 6 2 7 4 8 5 9 6 10 11 11 7 12 9 13
REMARK SMILES IDX 8 14 10 15 13 16 17 19 19 20 20 21 22 22 21 23 23 24 18 25
REMARK H PARENT 13 17 13 18 18 26 18 27
ROOT
ATOM      1  C   UNL     1      23.739   4.730  51.017  1.00  0.00    +0.070 C 
ATOM      2  C   UNL     1      23.775   4.879  49.663  1.00  0.00    +0.101 C 
ATOM      3  C   UNL     1      23.147   3.928  48.789  1.00  0.00    +0.104 C 
ATOM      4  N   UNL     1      22.624   3.179  48.075  1.00  0.00    -0.192 NA
ENDROOT
BRANCH   1   5
ATOM      5  C   UNL     1      23.083   3.563  51.629  1.00  0.00    +0.077 C 
ATOM      6  N   UNL     1      20.629   3.891  52.397  1.00  0.00    -0.192 NA
ATOM      7  C   UNL     1      21.731   3.732  52.068  1.00  0.00    +0.101 C 
ATOM      8  C   UNL     1      23.741   2.390  51.739  1.00  0.00    +0.029 C 
BRANCH   8   9
ATOM      9  C   UNL     1      23.191   1.172  52.341  1.00  0.00    -0.023 A 
ATOM     10  C   UNL     1      22.052   0.579  51.784  1.00  0.00    +0.008 A 
ATOM     11  C   UNL     1      23.800   0.590  53.458  1.00  0.00    +0.028 A 
ATOM     12  C   UNL     1      21.518  -0.583  52.346  1.00  0.00    +0.002 A 
ATOM     13  C   UNL     1      23.262  -0.571  54.012  1.00  0.00    +0.041 A 
ATOM     14  C   UNL     1      22.124  -1.158  53.462  1.00  0.00    +0.020 A 
ATOM     15 Cl   UNL     1      24.013  -1.290  55.385  1.00  0.00    -0.084 Cl
ENDBRANCH   8   9
ENDBRANCH   1   5
BRANCH   1  16
ATOM     16  N   UNL     1      24.246   5.654  51.920  1.00  0.00    -0.397 N 
ATOM     17  H   UNL     1      23.830   6.583  51.871  1.00  0.00    +0.156 HD
ATOM     18  H   UNL     1      24.359   5.321  52.876  1.00  0.00    +0.156 HD
ENDBRANCH   1  16
BRANCH   2  19
ATOM     19  C   UNL     1      24.426   6.035  49.005  1.00  0.00    +0.081 C 
ATOM     20  C   UNL     1      25.753   6.011  48.704  1.00  0.00    +0.153 C 
ATOM     21  C   UNL     1      26.589   4.903  49.023  1.00  0.00    +0.113 C 
ATOM     22  C   UNL     1      26.375   7.130  48.080  1.00  0.00    +0.113 C 
ATOM     23  N   UNL     1      27.253   3.995  49.304  1.00  0.00    -0.192 NA
ATOM     24  N   UNL     1      26.846   8.057  47.564  1.00  0.00    -0.192 NA
BRANCH  19  25
ATOM     25  N   UNL     1      23.591   7.128  48.773  1.00  0.00    -0.396 N 
ATOM     26  H   UNL     1      23.143   7.519  49.601  1.00  0.00    +0.156 HD
ATOM     27  H   UNL     1      22.950   7.059  47.982  1.00  0.00    +0.156 HD
ENDBRANCH  19  25
ENDBRANCH   2  19
TORSDOF 5
ENDMDL
MODEL 9
REMARK VINA RESULT:    -6.916      4.240      7.891
REMARK INTER + INTRA:          -8.421
REMARK INTER:                  -7.891
REMARK INTRA:                  -0.531
REMARK UNBOUND:                 0.112
REMARK SMILES N#CC(=Cc1cccc(Cl)c1)C(N)=C(C#N)C(N)=C(C#N)C#N
REMARK SMILES IDX 12 1 14 2 15 3 16 4 3 5 1 6 2 7 4 8 5 9 6 10 11 11 7 12 9 13
REMARK SMILES IDX 8 14 10 15 13 16 17 19 19 20 20 21 22 22 21 23 23 24 18 25
REMARK H PARENT 13 17 13 18 18 26 18 27
ROOT
ATOM      1  C   UNL     1      23.840   4.183  51.453  1.00  0.00    +0.070 C 
ATOM      2  C   UNL     1      22.709   3.800  50.798  1.00  0.00    +0.101 C 
ATOM      3  C   UNL     1      22.573   2.480  50.250  1.00  0.00    +0.104 C 
ATOM      4  N   UNL     1      22.444   1.409  49.822  1.00  0.00    -0.192 NA
ENDROOT
BRANCH   1   5
ATOM      5  C   UNL     1      24.981   3.262  51.589  1.00  0.00    +0.077 C 
ATOM      6  N   UNL     1      26.766   3.355  49.712  1.00  0.00    -0.192 NA
ATOM      7  C   UNL     1      25.970   3.294  50.554  1.00  0.00    +0.101 C 
ATOM      8  C   UNL     1      25.077   2.449  52.660  1.00  0.00    +0.029 C 
BRANCH   8   9
ATOM      9  C   UNL     1      26.158   1.487  52.890  1.00  0.00    -0.023 A 
ATOM     10  C   UNL     1      27.332   1.905  53.528  1.00  0.00    +0.008 A 
ATOM     11  C   UNL     1      26.025   0.153  52.489  1.00  0.00    +0.028 A 
ATOM     12  C   UNL     1      28.370   0.998  53.754  1.00  0.00    +0.002 A 
ATOM     13  C   UNL     1      27.065  -0.747  52.721  1.00  0.00    +0.041 A 
ATOM     14  C   UNL     1      28.237  -0.329  53.350  1.00  0.00    +0.020 A 
ATOM     15 Cl   UNL     1      26.900  -2.389  52.231  1.00  0.00    -0.084 Cl
ENDBRANCH   8   9
ENDBRANCH   1   5
BRANCH   1  16
ATOM     16  N   UNL     1      24.003   5.410  52.084  1.00  0.00    -0.397 N 
ATOM     17  H   UNL     1      24.259   5.361  53.069  1.00  0.00    +0.156 HD
ATOM     18  H   UNL     1      24.542   6.103  51.568  1.00  0.00    +0.156 HD
ENDBRANCH   1  16
BRANCH   2  19
ATOM     19  C   UNL     1      21.539   4.694  50.637  1.00  0.00    +0.081 C 
ATOM     20  C   UNL     1      21.500   5.620  49.641  1.00  0.00    +0.153 C 
ATOM     21  C   UNL     1      22.576   5.803  48.725  1.00  0.00    +0.113 C 
ATOM     22  C   UNL     1      20.377   6.484  49.497  1.00  0.00    +0.113 C 
ATOM     23  N   UNL     1      23.469   5.944  47.999  1.00  0.00    -0.192 NA
ATOM     24  N   UNL     1      19.441   7.164  49.405  1.00  0.00    -0.192 NA
BRANCH  19  25
ATOM     25  N   UNL     1      20.538   4.533  51.594  1.00  0.00    -0.396 N 
ATOM     26  H   UNL     1      19.804   3.867  51.352  1.00  0.00    +0.156 HD
ATOM     27  H   UNL     1      20.163   5.384  52.017  1.00  0.00    +0.156 HD
ENDBRANCH  19  25
ENDBRANCH   2  19
TORSDOF 5
ENDMDL
