REMARK SMILES Cc1cc(C)c(C=C(C#N)C(N)=C(C#N)C(N)=C(C#N)C#N)[nH]1
REMARK SMILES IDX 11 1 13 2 14 3 15 4 8 5 7 6 9 7 10 8 6 9 2 10 3 11 23 12
REMARK SMILES IDX 4 13 1 14 5 16 12 17 16 20 18 21 19 22 21 23 20 24 22 25
REMARK SMILES IDX 17 26
REMARK H PARENT 23 15 12 18 12 19 17 27 17 28
ROOT
ATOM      1  C   UNL     1       1.641   0.861   0.443  1.00  0.00    +0.070 C 
ATOM      2  C   UNL     1       2.440  -0.107   0.968  1.00  0.00    +0.101 C 
ATOM      3  C   UNL     1       1.912  -1.190   1.748  1.00  0.00    +0.104 C 
ATOM      4  N   UNL     1       1.489  -2.081   2.359  1.00  0.00    -0.192 NA
ENDROOT
BRANCH   1   5
ATOM      5  C   UNL     1       0.181   0.824   0.646  1.00  0.00    +0.078 C 
ATOM      6  C   UNL     1      -0.592   0.108  -0.197  1.00  0.00    +0.048 C 
ATOM      7  C   UNL     1      -0.320   1.569   1.758  1.00  0.00    +0.101 C 
ATOM      8  N   UNL     1      -0.748   2.209   2.626  1.00  0.00    -0.192 NA
BRANCH   6   9
ATOM      9  C   UNL     1      -2.003  -0.067  -0.139  1.00  0.00    +0.043 A 
ATOM     10  C   UNL     1      -4.154   0.505   0.230  1.00  0.00    +0.012 A 
ATOM     11  C   UNL     1      -4.149  -0.767  -0.294  1.00  0.00    +0.026 A 
ATOM     12  N   UNL     1      -2.849   0.923   0.308  1.00  0.00    -0.359 N 
ATOM     13  C   UNL     1      -2.797  -1.135  -0.538  1.00  0.00    -0.026 A 
ATOM     14  C   UNL     1      -5.276   1.371   0.669  1.00  0.00    +0.064 C 
ATOM     15  H   UNL     1      -2.575   1.834   0.654  1.00  0.00    +0.166 HD
ATOM     16  C   UNL     1      -2.338  -2.433  -1.103  1.00  0.00    +0.046 C 
ENDBRANCH   6   9
ENDBRANCH   1   5
BRANCH   1  17
ATOM     17  N   UNL     1       2.095   1.933  -0.317  1.00  0.00    -0.397 N 
ATOM     18  H   UNL     1       3.023   1.851  -0.720  1.00  0.00    +0.156 HD
ATOM     19  H   UNL     1       1.415   2.306  -0.980  1.00  0.00    +0.156 HD
ENDBRANCH   1  17
BRANCH   2  20
ATOM     20  C   UNL     1       3.904  -0.129   0.765  1.00  0.00    +0.081 C 
ATOM     21  C   UNL     1       4.437  -0.774  -0.307  1.00  0.00    +0.153 C 
ATOM     22  C   UNL     1       5.844  -0.802  -0.515  1.00  0.00    +0.113 C 
ATOM     23  C   UNL     1       3.617  -1.415  -1.281  1.00  0.00    +0.113 C 
ATOM     24  N   UNL     1       6.993  -0.782  -0.679  1.00  0.00    -0.192 NA
ATOM     25  N   UNL     1       2.909  -1.893  -2.066  1.00  0.00    -0.192 NA
BRANCH  20  26
ATOM     26  N   UNL     1       4.636   0.542   1.738  1.00  0.00    -0.396 N 
ATOM     27  H   UNL     1       5.601   0.786   1.518  1.00  0.00    +0.156 HD
ATOM     28  H   UNL     1       4.142   1.301   2.211  1.00  0.00    +0.156 HD
ENDBRANCH  20  26
ENDBRANCH   2  20
TORSDOF 5
