MODEL 1
REMARK VINA RESULT:    -8.797      0.000      0.000
REMARK INTER + INTRA:         -13.561
REMARK INTER:                 -11.882
REMARK INTRA:                  -1.679
REMARK UNBOUND:                -1.679
REMARK SMILES c1ccc(-c2ncnc3ccc(N/N=N/Cc4ccc(N5CCOCC5)[nH]4)cc23)cc1
REMARK SMILES IDX 14 1 15 2 13 3 12 5 5 6 6 7 29 8 7 9 28 10 9 11 8 12 10 13
REMARK SMILES IDX 11 14 4 15 1 16 2 17 31 18 3 19 30 20 16 21 17 22 18 23
REMARK SMILES IDX 27 24 19 25 20 26 21 28 22 29 26 30 23 31 25 32 24 33
REMARK H PARENT 13 4 27 27
ROOT
ATOM      1  N   UNL     1      21.083  -1.023  54.957  1.00  0.00    -0.074 NA
ATOM      2  N   UNL     1      21.954  -1.911  55.018  1.00  0.00    -0.165 NA
ENDROOT
BRANCH   1   3
ATOM      3  N   UNL     1      20.046  -1.563  54.288  1.00  0.00    -0.260 N 
ATOM      4  H   UNL     1      20.101  -2.572  54.170  1.00  0.00    +0.192 HD
BRANCH   3   5
ATOM      5  C   UNL     1      19.524  -0.865  53.184  1.00  0.00    +0.059 A 
ATOM      6  C   UNL     1      20.302   1.910  50.732  1.00  0.00    +0.081 A 
ATOM      7  N   UNL     1      19.722   2.547  49.689  1.00  0.00    -0.236 NA
ATOM      8  C   UNL     1      19.662   0.888  51.455  1.00  0.00    +0.029 A 
ATOM      9  C   UNL     1      18.474   2.176  49.394  1.00  0.00    +0.223 A 
ATOM     10  C   UNL     1      20.232   0.146  52.524  1.00  0.00    +0.040 A 
ATOM     11  C   UNL     1      18.355   0.606  51.044  1.00  0.00    +0.074 A 
ATOM     12  N   UNL     1      17.758   1.241  50.030  1.00  0.00    -0.236 NA
ATOM     13  C   UNL     1      17.645  -0.372  51.726  1.00  0.00    +0.031 A 
ATOM     14  C   UNL     1      18.204  -1.088  52.792  1.00  0.00    +0.030 A 
BRANCH   6  15
ATOM     15  C   UNL     1      21.655   2.399  51.044  1.00  0.00    +0.001 A 
ATOM     16  C   UNL     1      24.238   3.342  51.647  1.00  0.00    +0.000 A 
ATOM     17  C   UNL     1      24.042   2.495  50.559  1.00  0.00    +0.001 A 
ATOM     18  C   UNL     1      23.158   3.715  52.442  1.00  0.00    +0.001 A 
ATOM     19  C   UNL     1      22.759   2.023  50.263  1.00  0.00    +0.010 A 
ATOM     20  C   UNL     1      21.876   3.243  52.146  1.00  0.00    +0.010 A 
ENDBRANCH   6  15
ENDBRANCH   3   5
ENDBRANCH   1   3
BRANCH   2  21
ATOM     21  C   UNL     1      23.157  -1.434  55.712  1.00  0.00    +0.222 C 
BRANCH  21  22
ATOM     22  C   UNL     1      24.133  -0.917  54.712  1.00  0.00    +0.040 A 
ATOM     23  C   UNL     1      23.946  -0.393  53.448  1.00  0.00    +0.027 A 
ATOM     24  N   UNL     1      25.483  -0.871  54.974  1.00  0.00    -0.344 N 
ATOM     25  C   UNL     1      25.219  -0.003  52.958  1.00  0.00    +0.047 A 
ATOM     26  C   UNL     1      26.164  -0.330  53.911  1.00  0.00    +0.106 A 
ATOM     27  H   UNL     1      25.913  -1.158  55.842  1.00  0.00    +0.168 HD
BRANCH  26  28
ATOM     28  N   UNL     1      27.521  -0.159  53.965  1.00  0.00    -0.354 N 
ATOM     29  C   UNL     1      28.372  -1.085  53.178  1.00  0.00    +0.146 C 
ATOM     30  C   UNL     1      28.033   1.234  53.903  1.00  0.00    +0.146 C 
ATOM     31  C   UNL     1      29.846  -0.939  53.593  1.00  0.00    +0.181 C 
ATOM     32  C   UNL     1      29.520   1.281  54.287  1.00  0.00    +0.181 C 
ATOM     33  O   UNL     1      30.308   0.418  53.457  1.00  0.00    -0.378 OA
ENDBRANCH  26  28
ENDBRANCH  21  22
ENDBRANCH   2  21
TORSDOF 6
ENDMDL
MODEL 2
REMARK VINA RESULT:    -8.380      2.777      5.929
REMARK INTER + INTRA:         -12.998
REMARK INTER:                 -11.255
REMARK INTRA:                  -1.743
REMARK UNBOUND:                -1.679
REMARK SMILES c1ccc(-c2ncnc3ccc(N/N=N/Cc4ccc(N5CCOCC5)[nH]4)cc23)cc1
REMARK SMILES IDX 14 1 15 2 13 3 12 5 5 6 6 7 29 8 7 9 28 10 9 11 8 12 10 13
REMARK SMILES IDX 11 14 4 15 1 16 2 17 31 18 3 19 30 20 16 21 17 22 18 23
REMARK SMILES IDX 27 24 19 25 20 26 21 28 22 29 26 30 23 31 25 32 24 33
REMARK H PARENT 13 4 27 27
ROOT
ATOM      1  N   UNL     1      20.523   2.443  50.085  1.00  0.00    -0.074 NA
ATOM      2  N   UNL     1      19.774   3.160  50.775  1.00  0.00    -0.165 NA
ENDROOT
BRANCH   1   3
ATOM      3  N   UNL     1      20.121   1.175  50.291  1.00  0.00    -0.260 N 
ATOM      4  H   UNL     1      19.176   0.976  49.971  1.00  0.00    +0.192 HD
BRANCH   3   5
ATOM      5  C   UNL     1      20.485   0.542  51.493  1.00  0.00    +0.059 A 
ATOM      6  C   UNL     1      23.465  -0.337  53.653  1.00  0.00    +0.081 A 
ATOM      7  N   UNL     1      23.736  -0.979  54.812  1.00  0.00    -0.236 NA
ATOM      8  C   UNL     1      22.167  -0.227  53.124  1.00  0.00    +0.029 A 
ATOM      9  C   UNL     1      22.695  -1.547  55.426  1.00  0.00    +0.223 A 
ATOM     10  C   UNL     1      21.809   0.476  51.943  1.00  0.00    +0.040 A 
ATOM     11  C   UNL     1      21.174  -0.874  53.866  1.00  0.00    +0.074 A 
ATOM     12  N   UNL     1      21.426  -1.534  55.002  1.00  0.00    -0.236 NA
ATOM     13  C   UNL     1      19.868  -0.837  53.396  1.00  0.00    +0.031 A 
ATOM     14  C   UNL     1      19.523  -0.158  52.221  1.00  0.00    +0.030 A 
BRANCH   6  15
ATOM     15  C   UNL     1      24.658   0.220  52.995  1.00  0.00    +0.001 A 
ATOM     16  C   UNL     1      26.935   1.295  51.734  1.00  0.00    +0.000 A 
ATOM     17  C   UNL     1      26.864  -0.071  51.998  1.00  0.00    +0.001 A 
ATOM     18  C   UNL     1      25.884   2.130  52.103  1.00  0.00    +0.001 A 
ATOM     19  C   UNL     1      25.735  -0.603  52.628  1.00  0.00    +0.010 A 
ATOM     20  C   UNL     1      24.756   1.598  52.733  1.00  0.00    +0.010 A 
ENDBRANCH   6  15
ENDBRANCH   3   5
ENDBRANCH   1   3
BRANCH   2  21
ATOM     21  C   UNL     1      20.129   4.580  50.653  1.00  0.00    +0.222 C 
BRANCH  21  22
ATOM     22  C   UNL     1      21.522   4.784  51.139  1.00  0.00    +0.040 A 
ATOM     23  C   UNL     1      22.063   4.705  52.407  1.00  0.00    +0.027 A 
ATOM     24  N   UNL     1      22.553   5.082  50.277  1.00  0.00    -0.344 N 
ATOM     25  C   UNL     1      23.457   4.937  52.289  1.00  0.00    +0.047 A 
ATOM     26  C   UNL     1      23.740   5.193  50.961  1.00  0.00    +0.106 A 
ATOM     27  H   UNL     1      22.462   5.169  49.275  1.00  0.00    +0.168 HD
BRANCH  26  28
ATOM     28  N   UNL     1      24.907   5.455  50.297  1.00  0.00    -0.354 N 
ATOM     29  C   UNL     1      25.459   4.399  49.414  1.00  0.00    +0.146 C 
ATOM     30  C   UNL     1      25.055   6.803  49.691  1.00  0.00    +0.146 C 
ATOM     31  C   UNL     1      26.900   4.746  49.001  1.00  0.00    +0.181 C 
ATOM     32  C   UNL     1      26.512   7.047  49.267  1.00  0.00    +0.181 C 
ATOM     33  O   UNL     1      26.977   6.035  48.365  1.00  0.00    -0.378 OA
ENDBRANCH  26  28
ENDBRANCH  21  22
ENDBRANCH   2  21
TORSDOF 6
ENDMDL
MODEL 3
REMARK VINA RESULT:    -8.371      5.024      7.735
REMARK INTER + INTRA:         -12.986
REMARK INTER:                 -12.043
REMARK INTRA:                  -0.943
REMARK UNBOUND:                -1.679
REMARK SMILES c1ccc(-c2ncnc3ccc(N/N=N/Cc4ccc(N5CCOCC5)[nH]4)cc23)cc1
REMARK SMILES IDX 14 1 15 2 13 3 12 5 5 6 6 7 29 8 7 9 28 10 9 11 8 12 10 13
REMARK SMILES IDX 11 14 4 15 1 16 2 17 31 18 3 19 30 20 16 21 17 22 18 23
REMARK SMILES IDX 27 24 19 25 20 26 21 28 22 29 26 30 23 31 25 32 24 33
REMARK H PARENT 13 4 27 27
ROOT
ATOM      1  N   UNL     1      23.756   3.722  50.552  1.00  0.00    -0.074 NA
ATOM      2  N   UNL     1      24.685   4.005  49.773  1.00  0.00    -0.165 NA
ENDROOT
BRANCH   1   3
ATOM      3  N   UNL     1      23.494   2.415  50.363  1.00  0.00    -0.260 N 
ATOM      4  H   UNL     1      22.951   2.212  49.525  1.00  0.00    +0.192 HD
BRANCH   3   5
ATOM      5  C   UNL     1      23.175   1.625  51.481  1.00  0.00    +0.059 A 
ATOM      6  C   UNL     1      24.713  -0.530  54.184  1.00  0.00    +0.081 A 
ATOM      7  N   UNL     1      24.323  -1.288  55.235  1.00  0.00    -0.236 NA
ATOM      8  C   UNL     1      23.804   0.139  53.346  1.00  0.00    +0.029 A 
ATOM      9  C   UNL     1      23.007  -1.402  55.421  1.00  0.00    +0.223 A 
ATOM     10  C   UNL     1      24.147   0.989  52.261  1.00  0.00    +0.040 A 
ATOM     11  C   UNL     1      22.456  -0.073  53.651  1.00  0.00    +0.074 A 
ATOM     12  N   UNL     1      22.052  -0.838  54.672  1.00  0.00    -0.236 NA
ATOM     13  C   UNL     1      21.495   0.530  52.852  1.00  0.00    +0.031 A 
ATOM     14  C   UNL     1      21.838   1.352  51.772  1.00  0.00    +0.030 A 
BRANCH   6  15
ATOM     15  C   UNL     1      26.172  -0.487  53.997  1.00  0.00    +0.001 A 
ATOM     16  C   UNL     1      28.964  -0.395  53.642  1.00  0.00    +0.000 A 
ATOM     17  C   UNL     1      28.200  -1.312  52.924  1.00  0.00    +0.001 A 
ATOM     18  C   UNL     1      28.347   0.469  54.543  1.00  0.00    +0.001 A 
ATOM     19  C   UNL     1      26.814  -1.360  53.104  1.00  0.00    +0.010 A 
ATOM     20  C   UNL     1      26.962   0.420  54.723  1.00  0.00    +0.010 A 
ENDBRANCH   6  15
ENDBRANCH   3   5
ENDBRANCH   1   3
BRANCH   2  21
ATOM     21  C   UNL     1      25.051   5.424  49.869  1.00  0.00    +0.222 C 
BRANCH  21  22
ATOM     22  C   UNL     1      26.422   5.619  49.321  1.00  0.00    +0.040 A 
ATOM     23  C   UNL     1      27.311   4.725  48.758  1.00  0.00    +0.027 A 
ATOM     24  N   UNL     1      27.018   6.859  49.285  1.00  0.00    -0.344 N 
ATOM     25  C   UNL     1      28.454   5.461  48.353  1.00  0.00    +0.047 A 
ATOM     26  C   UNL     1      28.264   6.782  48.710  1.00  0.00    +0.106 A 
ATOM     27  H   UNL     1      26.587   7.717  49.600  1.00  0.00    +0.168 HD
BRANCH  26  28
ATOM     28  N   UNL     1      29.027   7.905  48.542  1.00  0.00    -0.354 N 
ATOM     29  C   UNL     1      28.947   8.964  49.578  1.00  0.00    +0.146 C 
ATOM     30  C   UNL     1      30.421   7.713  48.068  1.00  0.00    +0.146 C 
ATOM     31  C   UNL     1      29.622  10.253  49.078  1.00  0.00    +0.181 C 
ATOM     32  C   UNL     1      31.033   9.055  47.633  1.00  0.00    +0.181 C 
ATOM     33  O   UNL     1      30.989  10.023  48.689  1.00  0.00    -0.378 OA
ENDBRANCH  26  28
ENDBRANCH  21  22
ENDBRANCH   2  21
TORSDOF 6
ENDMDL
MODEL 4
REMARK VINA RESULT:    -8.344      4.198      7.313
REMARK INTER + INTRA:         -12.949
REMARK INTER:                 -11.693
REMARK INTRA:                  -1.257
REMARK UNBOUND:                -1.679
REMARK SMILES c1ccc(-c2ncnc3ccc(N/N=N/Cc4ccc(N5CCOCC5)[nH]4)cc23)cc1
REMARK SMILES IDX 14 1 15 2 13 3 12 5 5 6 6 7 29 8 7 9 28 10 9 11 8 12 10 13
REMARK SMILES IDX 11 14 4 15 1 16 2 17 31 18 3 19 30 20 16 21 17 22 18 23
REMARK SMILES IDX 27 24 19 25 20 26 21 28 22 29 26 30 23 31 25 32 24 33
REMARK H PARENT 13 4 27 27
ROOT
ATOM      1  N   UNL     1      24.125   3.370  50.716  1.00  0.00    -0.074 NA
ATOM      2  N   UNL     1      23.285   4.140  51.220  1.00  0.00    -0.165 NA
ENDROOT
BRANCH   1   3
ATOM      3  N   UNL     1      23.502   2.186  50.561  1.00  0.00    -0.260 N 
ATOM      4  H   UNL     1      22.727   2.202  49.901  1.00  0.00    +0.192 HD
BRANCH   3   5
ATOM      5  C   UNL     1      23.297   1.382  51.697  1.00  0.00    +0.059 A 
ATOM      6  C   UNL     1      25.122  -0.616  54.342  1.00  0.00    +0.081 A 
ATOM      7  N   UNL     1      24.841  -1.395  55.412  1.00  0.00    -0.236 NA
ATOM      8  C   UNL     1      24.126  -0.031  53.539  1.00  0.00    +0.029 A 
ATOM      9  C   UNL     1      23.547  -1.616  55.654  1.00  0.00    +0.223 A 
ATOM     10  C   UNL     1      24.351   0.835  52.437  1.00  0.00    +0.040 A 
ATOM     11  C   UNL     1      22.814  -0.352  53.903  1.00  0.00    +0.074 A 
ATOM     12  N   UNL     1      22.518  -1.139  54.943  1.00  0.00    -0.236 NA
ATOM     13  C   UNL     1      21.773   0.163  53.143  1.00  0.00    +0.031 A 
ATOM     14  C   UNL     1      22.001   1.002  52.045  1.00  0.00    +0.030 A 
BRANCH   6  15
ATOM     15  C   UNL     1      26.563  -0.454  54.092  1.00  0.00    +0.001 A 
ATOM     16  C   UNL     1      29.321  -0.153  53.610  1.00  0.00    +0.000 A 
ATOM     17  C   UNL     1      28.650   0.762  54.418  1.00  0.00    +0.001 A 
ATOM     18  C   UNL     1      28.624  -1.212  53.032  1.00  0.00    +0.001 A 
ATOM     19  C   UNL     1      27.280   0.615  54.653  1.00  0.00    +0.010 A 
ATOM     20  C   UNL     1      27.254  -1.358  53.267  1.00  0.00    +0.010 A 
ENDBRANCH   6  15
ENDBRANCH   3   5
ENDBRANCH   1   3
BRANCH   2  21
ATOM     21  C   UNL     1      23.856   5.471  51.462  1.00  0.00    +0.222 C 
BRANCH  21  22
ATOM     22  C   UNL     1      24.539   5.948  50.226  1.00  0.00    +0.040 A 
ATOM     23  C   UNL     1      24.033   6.464  49.050  1.00  0.00    +0.027 A 
ATOM     24  N   UNL     1      25.911   5.954  50.115  1.00  0.00    -0.344 N 
ATOM     25  C   UNL     1      25.136   6.810  48.229  1.00  0.00    +0.047 A 
ATOM     26  C   UNL     1      26.295   6.464  48.898  1.00  0.00    +0.106 A 
ATOM     27  H   UNL     1      26.551   5.663  50.839  1.00  0.00    +0.168 HD
BRANCH  26  28
ATOM     28  N   UNL     1      27.620   6.594  48.581  1.00  0.00    -0.354 N 
ATOM     29  C   UNL     1      28.398   5.359  48.318  1.00  0.00    +0.146 C 
ATOM     30  C   UNL     1      27.989   7.680  47.637  1.00  0.00    +0.146 C 
ATOM     31  C   UNL     1      29.904   5.672  48.282  1.00  0.00    +0.181 C 
ATOM     32  C   UNL     1      29.511   7.894  47.630  1.00  0.00    +0.181 C 
ATOM     33  O   UNL     1      30.214   6.687  47.309  1.00  0.00    -0.378 OA
ENDBRANCH  26  28
ENDBRANCH  21  22
ENDBRANCH   2  21
TORSDOF 6
ENDMDL
MODEL 5
REMARK VINA RESULT:    -8.279      3.668      5.710
REMARK INTER + INTRA:         -12.861
REMARK INTER:                 -11.157
REMARK INTRA:                  -1.704
REMARK UNBOUND:                -1.679
REMARK SMILES c1ccc(-c2ncnc3ccc(N/N=N/Cc4ccc(N5CCOCC5)[nH]4)cc23)cc1
REMARK SMILES IDX 14 1 15 2 13 3 12 5 5 6 6 7 29 8 7 9 28 10 9 11 8 12 10 13
REMARK SMILES IDX 11 14 4 15 1 16 2 17 31 18 3 19 30 20 16 21 17 22 18 23
REMARK SMILES IDX 27 24 19 25 20 26 21 28 22 29 26 30 23 31 25 32 24 33
REMARK H PARENT 13 4 27 27
ROOT
ATOM      1  N   UNL     1      25.533   0.208  52.606  1.00  0.00    -0.074 NA
ATOM      2  N   UNL     1      25.913   1.393  52.641  1.00  0.00    -0.165 NA
ENDROOT
BRANCH   1   3
ATOM      3  N   UNL     1      24.809   0.014  53.726  1.00  0.00    -0.260 N 
ATOM      4  H   UNL     1      25.278  -0.542  54.438  1.00  0.00    +0.192 HD
BRANCH   3   5
ATOM      5  C   UNL     1      23.429  -0.224  53.600  1.00  0.00    +0.059 A 
ATOM      6  C   UNL     1      20.415   0.585  51.462  1.00  0.00    +0.081 A 
ATOM      7  N   UNL     1      19.088   0.324  51.422  1.00  0.00    -0.236 NA
ATOM      8  C   UNL     1      21.258   0.106  52.480  1.00  0.00    +0.029 A 
ATOM      9  C   UNL     1      18.600  -0.395  52.435  1.00  0.00    +0.223 A 
ATOM     10  C   UNL     1      22.663   0.299  52.553  1.00  0.00    +0.040 A 
ATOM     11  C   UNL     1      20.613  -0.628  53.480  1.00  0.00    +0.074 A 
ATOM     12  N   UNL     1      19.299  -0.876  53.470  1.00  0.00    -0.236 NA
ATOM     13  C   UNL     1      21.371  -1.112  54.537  1.00  0.00    +0.031 A 
ATOM     14  C   UNL     1      22.754  -0.904  54.614  1.00  0.00    +0.030 A 
BRANCH   6  15
ATOM     15  C   UNL     1      20.884   1.428  50.350  1.00  0.00    +0.001 A 
ATOM     16  C   UNL     1      21.789   3.031  48.219  1.00  0.00    +0.000 A 
ATOM     17  C   UNL     1      21.171   3.619  49.320  1.00  0.00    +0.001 A 
ATOM     18  C   UNL     1      21.949   1.649  48.167  1.00  0.00    +0.001 A 
ATOM     19  C   UNL     1      20.718   2.822  50.376  1.00  0.00    +0.010 A 
ATOM     20  C   UNL     1      21.496   0.853  49.223  1.00  0.00    +0.010 A 
ENDBRANCH   6  15
ENDBRANCH   3   5
ENDBRANCH   1   3
BRANCH   2  21
ATOM     21  C   UNL     1      26.740   1.724  51.473  1.00  0.00    +0.222 C 
BRANCH  21  22
ATOM     22  C   UNL     1      26.098   2.832  50.712  1.00  0.00    +0.040 A 
ATOM     23  C   UNL     1      24.779   3.056  50.371  1.00  0.00    +0.027 A 
ATOM     24  N   UNL     1      26.827   3.896  50.230  1.00  0.00    -0.344 N 
ATOM     25  C   UNL     1      24.721   4.299  49.691  1.00  0.00    +0.047 A 
ATOM     26  C   UNL     1      26.007   4.795  49.592  1.00  0.00    +0.106 A 
ATOM     27  H   UNL     1      27.821   4.021  50.359  1.00  0.00    +0.168 HD
BRANCH  26  28
ATOM     28  N   UNL     1      26.516   5.949  49.060  1.00  0.00    -0.354 N 
ATOM     29  C   UNL     1      27.875   5.904  48.468  1.00  0.00    +0.146 C 
ATOM     30  C   UNL     1      25.596   6.784  48.246  1.00  0.00    +0.146 C 
ATOM     31  C   UNL     1      28.390   7.329  48.203  1.00  0.00    +0.181 C 
ATOM     32  C   UNL     1      26.208   8.171  47.991  1.00  0.00    +0.181 C 
ATOM     33  O   UNL     1      27.491   8.074  47.360  1.00  0.00    -0.378 OA
ENDBRANCH  26  28
ENDBRANCH  21  22
ENDBRANCH   2  21
TORSDOF 6
ENDMDL
MODEL 6
REMARK VINA RESULT:    -8.278      3.147      5.614
REMARK INTER + INTRA:         -12.860
REMARK INTER:                 -10.835
REMARK INTRA:                  -2.024
REMARK UNBOUND:                -1.679
REMARK SMILES c1ccc(-c2ncnc3ccc(N/N=N/Cc4ccc(N5CCOCC5)[nH]4)cc23)cc1
REMARK SMILES IDX 14 1 15 2 13 3 12 5 5 6 6 7 29 8 7 9 28 10 9 11 8 12 10 13
REMARK SMILES IDX 11 14 4 15 1 16 2 17 31 18 3 19 30 20 16 21 17 22 18 23
REMARK SMILES IDX 27 24 19 25 20 26 21 28 22 29 26 30 23 31 25 32 24 33
REMARK H PARENT 13 4 27 27
ROOT
ATOM      1  N   UNL     1      25.136   0.992  53.251  1.00  0.00    -0.074 NA
ATOM      2  N   UNL     1      26.202   0.804  52.635  1.00  0.00    -0.165 NA
ENDROOT
BRANCH   1   3
ATOM      3  N   UNL     1      24.561  -0.218  53.384  1.00  0.00    -0.260 N 
ATOM      4  H   UNL     1      25.085  -0.981  52.958  1.00  0.00    +0.192 HD
BRANCH   3   5
ATOM      5  C   UNL     1      23.164  -0.315  53.257  1.00  0.00    +0.059 A 
ATOM      6  C   UNL     1      20.254   0.753  51.087  1.00  0.00    +0.081 A 
ATOM      7  N   UNL     1      18.908   0.630  51.047  1.00  0.00    -0.236 NA
ATOM      8  C   UNL     1      21.041   0.211  52.119  1.00  0.00    +0.029 A 
ATOM      9  C   UNL     1      18.346  -0.012  52.073  1.00  0.00    +0.223 A 
ATOM     10  C   UNL     1      22.458   0.260  52.194  1.00  0.00    +0.040 A 
ATOM     11  C   UNL     1      20.321  -0.429  53.133  1.00  0.00    +0.074 A 
ATOM     12  N   UNL     1      18.988  -0.539  53.122  1.00  0.00    -0.236 NA
ATOM     13  C   UNL     1      21.023  -0.965  54.203  1.00  0.00    +0.031 A 
ATOM     14  C   UNL     1      22.420  -0.899  54.282  1.00  0.00    +0.030 A 
BRANCH   6  15
ATOM     15  C   UNL     1      20.811   1.517  49.959  1.00  0.00    +0.001 A 
ATOM     16  C   UNL     1      21.869   2.986  47.802  1.00  0.00    +0.000 A 
ATOM     17  C   UNL     1      22.143   1.625  47.920  1.00  0.00    +0.001 A 
ATOM     18  C   UNL     1      21.080   3.621  48.757  1.00  0.00    +0.001 A 
ATOM     19  C   UNL     1      21.621   0.897  48.994  1.00  0.00    +0.010 A 
ATOM     20  C   UNL     1      20.559   2.893  49.830  1.00  0.00    +0.010 A 
ENDBRANCH   6  15
ENDBRANCH   3   5
ENDBRANCH   1   3
BRANCH   2  21
ATOM     21  C   UNL     1      26.918   2.065  52.405  1.00  0.00    +0.222 C 
BRANCH  21  22
ATOM     22  C   UNL     1      26.252   2.819  51.306  1.00  0.00    +0.040 A 
ATOM     23  C   UNL     1      26.443   2.790  49.938  1.00  0.00    +0.027 A 
ATOM     24  N   UNL     1      25.234   3.711  51.554  1.00  0.00    -0.344 N 
ATOM     25  C   UNL     1      25.495   3.671  49.359  1.00  0.00    +0.047 A 
ATOM     26  C   UNL     1      24.767   4.252  50.380  1.00  0.00    +0.106 A 
ATOM     27  H   UNL     1      24.852   3.913  52.467  1.00  0.00    +0.168 HD
BRANCH  26  28
ATOM     28  N   UNL     1      23.730   5.145  50.386  1.00  0.00    -0.354 N 
ATOM     29  C   UNL     1      22.990   5.346  51.656  1.00  0.00    +0.146 C 
ATOM     30  C   UNL     1      23.935   6.428  49.667  1.00  0.00    +0.146 C 
ATOM     31  C   UNL     1      21.695   6.136  51.400  1.00  0.00    +0.181 C 
ATOM     32  C   UNL     1      22.601   7.171  49.497  1.00  0.00    +0.181 C 
ATOM     33  O   UNL     1      21.957   7.397  50.757  1.00  0.00    -0.378 OA
ENDBRANCH  26  28
ENDBRANCH  21  22
ENDBRANCH   2  21
TORSDOF 6
ENDMDL
MODEL 7
REMARK VINA RESULT:    -7.838      3.377      8.269
REMARK INTER + INTRA:         -12.266
REMARK INTER:                 -10.869
REMARK INTRA:                  -1.397
REMARK UNBOUND:                -1.679
REMARK SMILES c1ccc(-c2ncnc3ccc(N/N=N/Cc4ccc(N5CCOCC5)[nH]4)cc23)cc1
REMARK SMILES IDX 14 1 15 2 13 3 12 5 5 6 6 7 29 8 7 9 28 10 9 11 8 12 10 13
REMARK SMILES IDX 11 14 4 15 1 16 2 17 31 18 3 19 30 20 16 21 17 22 18 23
REMARK SMILES IDX 27 24 19 25 20 26 21 28 22 29 26 30 23 31 25 32 24 33
REMARK H PARENT 13 4 27 27
ROOT
ATOM      1  N   UNL     1      23.666   3.770  50.235  1.00  0.00    -0.074 NA
ATOM      2  N   UNL     1      23.961   4.465  51.225  1.00  0.00    -0.165 NA
ENDROOT
BRANCH   1   3
ATOM      3  N   UNL     1      24.340   2.612  50.377  1.00  0.00    -0.260 N 
ATOM      4  H   UNL     1      24.533   2.129  49.502  1.00  0.00    +0.192 HD
BRANCH   3   5
ATOM      5  C   UNL     1      24.013   1.775  51.458  1.00  0.00    +0.059 A 
ATOM      6  C   UNL     1      25.536  -0.453  54.111  1.00  0.00    +0.081 A 
ATOM      7  N   UNL     1      25.139  -1.257  55.123  1.00  0.00    -0.236 NA
ATOM      8  C   UNL     1      24.632   0.231  53.278  1.00  0.00    +0.029 A 
ATOM      9  C   UNL     1      23.822  -1.403  55.276  1.00  0.00    +0.223 A 
ATOM     10  C   UNL     1      24.981   1.128  52.234  1.00  0.00    +0.040 A 
ATOM     11  C   UNL     1      23.282  -0.019  53.546  1.00  0.00    +0.074 A 
ATOM     12  N   UNL     1      22.872  -0.829  54.528  1.00  0.00    -0.236 NA
ATOM     13  C   UNL     1      22.326   0.596  52.750  1.00  0.00    +0.031 A 
ATOM     14  C   UNL     1      22.676   1.466  51.709  1.00  0.00    +0.030 A 
BRANCH   6  15
ATOM     15  C   UNL     1      26.998  -0.375  53.956  1.00  0.00    +0.001 A 
ATOM     16  C   UNL     1      29.794  -0.216  53.664  1.00  0.00    +0.000 A 
ATOM     17  C   UNL     1      29.103  -1.319  53.167  1.00  0.00    +0.001 A 
ATOM     18  C   UNL     1      29.102   0.803  54.314  1.00  0.00    +0.001 A 
ATOM     19  C   UNL     1      27.715  -1.399  53.317  1.00  0.00    +0.010 A 
ATOM     20  C   UNL     1      27.715   0.721  54.464  1.00  0.00    +0.010 A 
ENDBRANCH   6  15
ENDBRANCH   3   5
ENDBRANCH   1   3
BRANCH   2  21
ATOM     21  C   UNL     1      23.301   5.777  51.175  1.00  0.00    +0.222 C 
BRANCH  21  22
ATOM     22  C   UNL     1      21.877   5.597  50.776  1.00  0.00    +0.040 A 
ATOM     23  C   UNL     1      21.105   6.257  49.840  1.00  0.00    +0.027 A 
ATOM     24  N   UNL     1      21.084   4.624  51.341  1.00  0.00    -0.344 N 
ATOM     25  C   UNL     1      19.828   5.641  49.833  1.00  0.00    +0.047 A 
ATOM     26  C   UNL     1      19.826   4.643  50.788  1.00  0.00    +0.106 A 
ATOM     27  H   UNL     1      21.392   3.960  52.037  1.00  0.00    +0.168 HD
BRANCH  26  28
ATOM     28  N   UNL     1      18.878   3.737  51.179  1.00  0.00    -0.354 N 
ATOM     29  C   UNL     1      17.451   4.105  51.011  1.00  0.00    +0.146 C 
ATOM     30  C   UNL     1      19.116   2.313  50.831  1.00  0.00    +0.146 C 
ATOM     31  C   UNL     1      16.550   3.116  51.770  1.00  0.00    +0.181 C 
ATOM     32  C   UNL     1      18.144   1.400  51.597  1.00  0.00    +0.181 C 
ATOM     33  O   UNL     1      16.778   1.757  51.352  1.00  0.00    -0.378 OA
ENDBRANCH  26  28
ENDBRANCH  21  22
ENDBRANCH   2  21
TORSDOF 6
ENDMDL
MODEL 8
REMARK VINA RESULT:    -7.808      2.001      4.459
REMARK INTER + INTRA:         -12.226
REMARK INTER:                 -11.085
REMARK INTRA:                  -1.141
REMARK UNBOUND:                -1.679
REMARK SMILES c1ccc(-c2ncnc3ccc(N/N=N/Cc4ccc(N5CCOCC5)[nH]4)cc23)cc1
REMARK SMILES IDX 14 1 15 2 13 3 12 5 5 6 6 7 29 8 7 9 28 10 9 11 8 12 10 13
REMARK SMILES IDX 11 14 4 15 1 16 2 17 31 18 3 19 30 20 16 21 17 22 18 23
REMARK SMILES IDX 27 24 19 25 20 26 21 28 22 29 26 30 23 31 25 32 24 33
REMARK H PARENT 13 4 27 27
ROOT
ATOM      1  N   UNL     1      21.325   4.732  51.591  1.00  0.00    -0.074 NA
ATOM      2  N   UNL     1      22.339   4.706  50.869  1.00  0.00    -0.165 NA
ENDROOT
BRANCH   1   3
ATOM      3  N   UNL     1      20.285   4.442  50.787  1.00  0.00    -0.260 N 
ATOM      4  H   UNL     1      19.796   5.257  50.422  1.00  0.00    +0.192 HD
BRANCH   3   5
ATOM      5  C   UNL     1      19.458   3.356  51.125  1.00  0.00    +0.059 A 
ATOM      6  C   UNL     1      19.477  -0.043  52.786  1.00  0.00    +0.081 A 
ATOM      7  N   UNL     1      18.621  -1.055  53.058  1.00  0.00    -0.236 NA
ATOM      8  C   UNL     1      19.093   1.117  52.090  1.00  0.00    +0.029 A 
ATOM      9  C   UNL     1      17.378  -0.913  52.594  1.00  0.00    +0.223 A 
ATOM     10  C   UNL     1      19.926   2.235  51.818  1.00  0.00    +0.040 A 
ATOM     11  C   UNL     1      17.764   1.129  51.656  1.00  0.00    +0.074 A 
ATOM     12  N   UNL     1      16.910   0.128  51.895  1.00  0.00    -0.236 NA
ATOM     13  C   UNL     1      17.315   2.228  50.936  1.00  0.00    +0.031 A 
ATOM     14  C   UNL     1      18.145   3.320  50.655  1.00  0.00    +0.030 A 
BRANCH   6  15
ATOM     15  C   UNL     1      20.845  -0.280  53.275  1.00  0.00    +0.001 A 
ATOM     16  C   UNL     1      23.459  -0.733  54.218  1.00  0.00    +0.000 A 
ATOM     17  C   UNL     1      23.253  -0.340  52.898  1.00  0.00    +0.001 A 
ATOM     18  C   UNL     1      22.370  -0.913  55.068  1.00  0.00    +0.001 A 
ATOM     19  C   UNL     1      21.954  -0.120  52.429  1.00  0.00    +0.010 A 
ATOM     20  C   UNL     1      21.073  -0.693  54.598  1.00  0.00    +0.010 A 
ENDBRANCH   6  15
ENDBRANCH   3   5
ENDBRANCH   1   3
BRANCH   2  21
ATOM     21  C   UNL     1      23.550   5.033  51.633  1.00  0.00    +0.222 C 
BRANCH  21  22
ATOM     22  C   UNL     1      24.613   4.035  51.324  1.00  0.00    +0.040 A 
ATOM     23  C   UNL     1      25.350   3.818  50.177  1.00  0.00    +0.027 A 
ATOM     24  N   UNL     1      25.050   3.130  52.265  1.00  0.00    -0.344 N 
ATOM     25  C   UNL     1      26.267   2.772  50.454  1.00  0.00    +0.047 A 
ATOM     26  C   UNL     1      26.050   2.341  51.749  1.00  0.00    +0.106 A 
ATOM     27  H   UNL     1      24.713   3.076  53.215  1.00  0.00    +0.168 HD
BRANCH  26  28
ATOM     28  N   UNL     1      26.657   1.388  52.521  1.00  0.00    -0.354 N 
ATOM     29  C   UNL     1      26.436   1.434  53.987  1.00  0.00    +0.146 C 
ATOM     30  C   UNL     1      26.642  -0.008  52.013  1.00  0.00    +0.146 C 
ATOM     31  C   UNL     1      27.419   0.495  54.706  1.00  0.00    +0.181 C 
ATOM     32  C   UNL     1      27.616  -0.885  52.815  1.00  0.00    +0.181 C 
ATOM     33  O   UNL     1      27.321  -0.856  54.217  1.00  0.00    -0.378 OA
ENDBRANCH  26  28
ENDBRANCH  21  22
ENDBRANCH   2  21
TORSDOF 6
ENDMDL
MODEL 9
REMARK VINA RESULT:    -7.715      3.029      8.303
REMARK INTER + INTRA:         -12.100
REMARK INTER:                 -10.718
REMARK INTRA:                  -1.382
REMARK UNBOUND:                -1.679
REMARK SMILES c1ccc(-c2ncnc3ccc(N/N=N/Cc4ccc(N5CCOCC5)[nH]4)cc23)cc1
REMARK SMILES IDX 14 1 15 2 13 3 12 5 5 6 6 7 29 8 7 9 28 10 9 11 8 12 10 13
REMARK SMILES IDX 11 14 4 15 1 16 2 17 31 18 3 19 30 20 16 21 17 22 18 23
REMARK SMILES IDX 27 24 19 25 20 26 21 28 22 29 26 30 23 31 25 32 24 33
REMARK H PARENT 13 4 27 27
ROOT
ATOM      1  N   UNL     1      22.016   1.499  49.522  1.00  0.00    -0.074 NA
ATOM      2  N   UNL     1      21.470   2.596  49.299  1.00  0.00    -0.165 NA
ENDROOT
BRANCH   1   3
ATOM      3  N   UNL     1      22.947   1.730  50.467  1.00  0.00    -0.260 N 
ATOM      4  H   UNL     1      23.887   1.876  50.105  1.00  0.00    +0.192 HD
BRANCH   3   5
ATOM      5  C   UNL     1      22.880   0.998  51.667  1.00  0.00    +0.059 A 
ATOM      6  C   UNL     1      25.024  -0.543  54.377  1.00  0.00    +0.081 A 
ATOM      7  N   UNL     1      24.877  -1.264  55.513  1.00  0.00    -0.236 NA
ATOM      8  C   UNL     1      23.937  -0.152  53.574  1.00  0.00    +0.029 A 
ATOM      9  C   UNL     1      23.630  -1.625  55.822  1.00  0.00    +0.223 A 
ATOM     10  C   UNL     1      24.018   0.647  52.403  1.00  0.00    +0.040 A 
ATOM     11  C   UNL     1      22.689  -0.604  54.013  1.00  0.00    +0.074 A 
ATOM     12  N   UNL     1      22.527  -1.337  55.120  1.00  0.00    -0.236 NA
ATOM     13  C   UNL     1      21.569  -0.284  53.259  1.00  0.00    +0.031 A 
ATOM     14  C   UNL     1      21.654   0.488  52.094  1.00  0.00    +0.030 A 
BRANCH   6  15
ATOM     15  C   UNL     1      26.425  -0.223  54.058  1.00  0.00    +0.001 A 
ATOM     16  C   UNL     1      29.102   0.400  53.449  1.00  0.00    +0.000 A 
ATOM     17  C   UNL     1      28.597  -0.865  53.157  1.00  0.00    +0.001 A 
ATOM     18  C   UNL     1      28.285   1.353  54.053  1.00  0.00    +0.001 A 
ATOM     19  C   UNL     1      27.268  -1.175  53.464  1.00  0.00    +0.010 A 
ATOM     20  C   UNL     1      26.958   1.042  54.359  1.00  0.00    +0.010 A 
ENDBRANCH   6  15
ENDBRANCH   3   5
ENDBRANCH   1   3
BRANCH   2  21
ATOM     21  C   UNL     1      20.441   2.480  48.257  1.00  0.00    +0.222 C 
BRANCH  21  22
ATOM     22  C   UNL     1      19.109   2.295  48.898  1.00  0.00    +0.040 A 
ATOM     23  C   UNL     1      17.927   2.996  48.756  1.00  0.00    +0.027 A 
ATOM     24  N   UNL     1      18.869   1.270  49.784  1.00  0.00    -0.344 N 
ATOM     25  C   UNL     1      16.954   2.352  49.562  1.00  0.00    +0.047 A 
ATOM     26  C   UNL     1      17.563   1.295  50.211  1.00  0.00    +0.106 A 
ATOM     27  H   UNL     1      19.544   0.570  50.055  1.00  0.00    +0.168 HD
BRANCH  26  28
ATOM     28  N   UNL     1      17.092   0.345  51.077  1.00  0.00    -0.354 N 
ATOM     29  C   UNL     1      16.002  -0.545  50.609  1.00  0.00    +0.146 C 
ATOM     30  C   UNL     1      18.096  -0.400  51.878  1.00  0.00    +0.146 C 
ATOM     31  C   UNL     1      15.405  -1.327  51.792  1.00  0.00    +0.181 C 
ATOM     32  C   UNL     1      17.410  -1.187  53.006  1.00  0.00    +0.181 C 
ATOM     33  O   UNL     1      16.411  -2.078  52.497  1.00  0.00    -0.378 OA
ENDBRANCH  26  28
ENDBRANCH  21  22
ENDBRANCH   2  21
TORSDOF 6
ENDMDL
