REMARK SMILES Cc1cccc(C=C2C(=O)N(C)c3ncnc(Nc4cccc(Cl)c4)c32)c1
REMARK SMILES IDX 7 1 8 2 9 3 10 4 11 5 12 6 13 7 14 8 15 9 16 10 17 11 26 12
REMARK SMILES IDX 6 13 2 14 3 15 27 16 4 17 5 18 1 19 18 20 19 22 20 23 25 24
REMARK SMILES IDX 21 25 23 26 22 27 24 28
REMARK H PARENT 18 21
ROOT
ATOM      1  C   UNL     1      -0.988   0.124   0.186  1.00  0.00    +0.023 C 
ATOM      2  C   UNL     1      -0.497  -1.031  -0.292  1.00  0.00    +0.055 C 
ATOM      3  C   UNL     1      -1.282  -2.280  -0.621  1.00  0.00    +0.260 C 
ATOM      4  O   UNL     1      -2.488  -2.429  -0.604  1.00  0.00    -0.269 OA
ATOM      5  N   UNL     1      -0.320  -3.223  -0.944  1.00  0.00    -0.295 N 
ATOM      6  C   UNL     1      -0.577  -4.586  -1.319  1.00  0.00    +0.155 C 
ATOM      7  C   UNL     1       0.971  -2.690  -0.877  1.00  0.00    +0.148 A 
ATOM      8  N   UNL     1       2.080  -3.381  -1.150  1.00  0.00    -0.218 NA
ATOM      9  C   UNL     1       3.197  -2.657  -1.038  1.00  0.00    +0.226 A 
ATOM     10  N   UNL     1       3.272  -1.352  -0.712  1.00  0.00    -0.218 NA
ATOM     11  C   UNL     1       2.122  -0.687  -0.462  1.00  0.00    +0.144 A 
ATOM     12  C   UNL     1       0.918  -1.355  -0.512  1.00  0.00    +0.073 A 
ENDROOT
BRANCH   1  13
ATOM     13  C   UNL     1      -2.396   0.455   0.431  1.00  0.00    -0.025 A 
ATOM     14  C   UNL     1      -4.665   0.853  -0.363  1.00  0.00    -0.051 A 
ATOM     15  C   UNL     1      -5.046   1.210   0.935  1.00  0.00    +0.003 A 
ATOM     16  C   UNL     1      -3.332   0.495  -0.610  1.00  0.00    +0.011 A 
ATOM     17  C   UNL     1      -4.117   1.186   1.975  1.00  0.00    +0.001 A 
ATOM     18  C   UNL     1      -2.796   0.812   1.724  1.00  0.00    +0.008 A 
ATOM     19  C   UNL     1      -5.655   0.901  -1.489  1.00  0.00    +0.044 C 
ENDBRANCH   1  13
BRANCH  11  20
ATOM     20  N   UNL     1       2.154   0.698  -0.179  1.00  0.00    -0.340 N 
ATOM     21  H   UNL     1       1.533   1.181  -0.822  1.00  0.00    +0.168 HD
BRANCH  20  22
ATOM     22  C   UNL     1       3.266   1.502   0.162  1.00  0.00    +0.041 A 
ATOM     23  C   UNL     1       4.384   0.999   0.841  1.00  0.00    +0.026 A 
ATOM     24  C   UNL     1       3.203   2.885  -0.069  1.00  0.00    +0.046 A 
ATOM     25  C   UNL     1       5.438   1.836   1.221  1.00  0.00    +0.004 A 
ATOM     26  C   UNL     1       4.255   3.720   0.312  1.00  0.00    +0.043 A 
ATOM     27  C   UNL     1       5.377   3.201   0.951  1.00  0.00    +0.020 A 
ATOM     28 Cl   UNL     1       4.160   5.410  -0.006  1.00  0.00    -0.084 Cl
ENDBRANCH  20  22
ENDBRANCH  11  20
TORSDOF 3
