REMARK SMILES CCN(c1ccccc1)c1cc(C)c(-c2ccccc2)[nH]1
REMARK SMILES IDX 3 1 2 2 1 3 4 4 5 5 9 6 6 7 8 8 7 9 10 10 11 11 21 12 12 13
REMARK SMILES IDX 14 14 13 16 15 17 16 18 20 19 17 20 19 21 18 22
REMARK H PARENT 21 15
ROOT
ATOM      1  N   UNL     1       1.729  -0.544   1.097  1.00  0.00    -0.328 N 
ENDROOT
BRANCH   1   2
ATOM      2  C   UNL     1       2.574  -1.556   1.760  1.00  0.00    +0.121 C 
ATOM      3  C   UNL     1       3.221  -2.502   0.755  1.00  0.00    +0.028 C 
ENDBRANCH   1   2
BRANCH   1   4
ATOM      4  C   UNL     1       2.455   0.520   0.501  1.00  0.00    +0.042 A 
ATOM      5  C   UNL     1       3.263   1.362   1.280  1.00  0.00    +0.026 A 
ATOM      6  C   UNL     1       2.386   0.767  -0.880  1.00  0.00    +0.026 A 
ATOM      7  C   UNL     1       3.976   2.416   0.700  1.00  0.00    +0.002 A 
ATOM      8  C   UNL     1       3.099   1.818  -1.463  1.00  0.00    +0.002 A 
ATOM      9  C   UNL     1       3.894   2.643  -0.671  1.00  0.00    +0.000 A 
ENDBRANCH   1   4
BRANCH   1  10
ATOM     10  C   UNL     1       0.432  -0.849   0.789  1.00  0.00    +0.111 A 
ATOM     11  C   UNL     1      -0.313  -2.005   0.893  1.00  0.00    +0.050 A 
ATOM     12  N   UNL     1      -0.428   0.122   0.334  1.00  0.00    -0.341 N 
ATOM     13  C   UNL     1      -1.641  -1.734   0.446  1.00  0.00    -0.023 A 
ATOM     14  C   UNL     1      -1.682  -0.391   0.094  1.00  0.00    +0.050 A 
ATOM     15  H   UNL     1      -0.159   1.083   0.183  1.00  0.00    +0.168 HD
ATOM     16  C   UNL     1      -2.755  -2.717   0.398  1.00  0.00    +0.047 C 
BRANCH  14  17
ATOM     17  C   UNL     1      -2.764   0.438  -0.434  1.00  0.00    -0.002 A 
ATOM     18  C   UNL     1      -3.497   0.024  -1.552  1.00  0.00    +0.010 A 
ATOM     19  C   UNL     1      -3.078   1.665   0.165  1.00  0.00    +0.010 A 
ATOM     20  C   UNL     1      -4.526   0.820  -2.062  1.00  0.00    +0.001 A 
ATOM     21  C   UNL     1      -4.107   2.461  -0.344  1.00  0.00    +0.001 A 
ATOM     22  C   UNL     1      -4.830   2.038  -1.458  1.00  0.00    +0.000 A 
ENDBRANCH  14  17
ENDBRANCH   1  10
TORSDOF 4
