REMARK SMILES Cc1cc(-c2ccc(O)cc2)[nH]c1-c1ccccc1
REMARK SMILES IDX 5 1 6 2 7 3 8 4 10 5 11 6 4 7 2 8 3 9 13 10 12 11 1 12 14 14
REMARK SMILES IDX 15 15 19 16 16 17 18 18 17 19 9 20
REMARK H PARENT 12 13 9 21
ROOT
ATOM      1  C   UNL     1      -2.419   0.256   0.012  1.00  0.00    -0.002 A 
ATOM      2  C   UNL     1      -2.813  -0.033  -1.302  1.00  0.00    +0.014 A 
ATOM      3  C   UNL     1      -4.160  -0.235  -1.613  1.00  0.00    +0.047 A 
ATOM      4  C   UNL     1      -5.119  -0.146  -0.613  1.00  0.00    +0.115 A 
ATOM      5  C   UNL     1      -4.755   0.145   0.696  1.00  0.00    +0.047 A 
ATOM      6  C   UNL     1      -3.406   0.347   1.005  1.00  0.00    +0.014 A 
ENDROOT
BRANCH   1   7
ATOM      7  C   UNL     1      -1.011   0.465   0.352  1.00  0.00    +0.046 A 
ATOM      8  C   UNL     1       0.993   1.123   1.227  1.00  0.00    -0.025 A 
ATOM      9  C   UNL     1      -0.420   1.304   1.279  1.00  0.00    +0.032 A 
ATOM     10  C   UNL     1       1.239   0.157   0.261  1.00  0.00    +0.049 A 
ATOM     11  N   UNL     1       0.018  -0.227  -0.245  1.00  0.00    -0.354 N 
ATOM     12  C   UNL     1       1.991   1.835   2.069  1.00  0.00    +0.047 C 
ATOM     13  H   UNL     1      -0.102  -0.927  -0.964  1.00  0.00    +0.167 HD
BRANCH  10  14
ATOM     14  C   UNL     1       2.488  -0.422  -0.228  1.00  0.00    -0.002 A 
ATOM     15  C   UNL     1       3.523   0.403  -0.683  1.00  0.00    +0.010 A 
ATOM     16  C   UNL     1       2.666  -1.812  -0.255  1.00  0.00    +0.010 A 
ATOM     17  C   UNL     1       4.714  -0.150  -1.159  1.00  0.00    +0.001 A 
ATOM     18  C   UNL     1       3.857  -2.364  -0.730  1.00  0.00    +0.001 A 
ATOM     19  C   UNL     1       4.881  -1.533  -1.183  1.00  0.00    +0.000 A 
ENDBRANCH  10  14
ENDBRANCH   1   7
BRANCH   4  20
ATOM     20  O   UNL     1      -6.421  -0.350  -0.961  1.00  0.00    -0.508 OA
ATOM     21  H   UNL     1      -6.973  -0.246  -0.168  1.00  0.00    +0.293 HD
ENDBRANCH   4  20
TORSDOF 3
