MODEL 1
REMARK VINA RESULT:    -8.690      0.000      0.000
REMARK INTER + INTRA:         -11.967
REMARK INTER:                 -11.229
REMARK INTRA:                  -0.738
REMARK UNBOUND:                -0.738
REMARK SMILES CN(c1ccc(O)cc1)c1ccc(-c2cc(O)ccc2[N+](=O)[O-])[nH]1
REMARK SMILES IDX 10 1 11 2 12 3 13 4 24 5 2 7 1 8 3 9 4 10 9 11 5 12 8 13
REMARK SMILES IDX 6 14 7 15 14 17 15 18 20 19 16 20 19 21 18 22 21 23 22 24
REMARK SMILES IDX 23 25 17 26
REMARK H PARENT 24 6 7 16 17 27
ROOT
ATOM      1  C   UNL     1      24.053   1.383  51.712  1.00  0.00    +0.110 A 
ATOM      2  C   UNL     1      23.497   0.733  52.795  1.00  0.00    +0.047 A 
ATOM      3  C   UNL     1      24.523   0.004  53.443  1.00  0.00    +0.031 A 
ATOM      4  C   UNL     1      25.703   0.230  52.758  1.00  0.00    +0.054 A 
ATOM      5  N   UNL     1      25.392   1.073  51.712  1.00  0.00    -0.341 N 
ATOM      6  H   UNL     1      26.063   1.465  51.070  1.00  0.00    +0.168 HD
ENDROOT
BRANCH   1   7
ATOM      7  N   UNL     1      23.523   2.222  50.767  1.00  0.00    -0.331 N 
ATOM      8  C   UNL     1      22.406   1.726  49.953  1.00  0.00    +0.152 C 
BRANCH   7   9
ATOM      9  C   UNL     1      23.627   3.634  50.885  1.00  0.00    +0.042 A 
ATOM     10  C   UNL     1      24.728   4.369  50.413  1.00  0.00    +0.030 A 
ATOM     11  C   UNL     1      22.598   4.359  51.521  1.00  0.00    +0.030 A 
ATOM     12  C   UNL     1      24.793   5.759  50.562  1.00  0.00    +0.048 A 
ATOM     13  C   UNL     1      22.656   5.748  51.674  1.00  0.00    +0.048 A 
ATOM     14  C   UNL     1      23.759   6.437  51.190  1.00  0.00    +0.115 A 
BRANCH  14  15
ATOM     15  O   UNL     1      23.863   7.791  51.313  1.00  0.00    -0.508 OA
ATOM     16  H   UNL     1      24.805   8.023  51.348  1.00  0.00    +0.293 HD
ENDBRANCH  14  15
ENDBRANCH   7   9
ENDBRANCH   1   7
BRANCH   4  17
ATOM     17  C   UNL     1      27.061  -0.258  52.999  1.00  0.00    +0.079 A 
ATOM     18  C   UNL     1      27.294  -1.641  53.007  1.00  0.00    +0.063 A 
ATOM     19  C   UNL     1      28.158   0.580  53.248  1.00  0.00    +0.278 A 
ATOM     20  C   UNL     1      28.572  -2.146  53.257  1.00  0.00    +0.116 A 
ATOM     21  C   UNL     1      29.444   0.078  53.504  1.00  0.00    +0.090 A 
ATOM     22  C   UNL     1      29.648  -1.300  53.508  1.00  0.00    +0.053 A 
BRANCH  19  23
ATOM     23  N   UNL     1      28.012   2.019  53.206  1.00  0.00    +0.063 N 
ATOM     24  O   UNL     1      28.182   2.629  54.271  1.00  0.00    -0.258 OA
ATOM     25  O   UNL     1      27.787   2.533  52.102  1.00  0.00    -0.258 OA
ENDBRANCH  19  23
BRANCH  20  26
ATOM     26  O   UNL     1      28.724  -3.501  53.249  1.00  0.00    -0.508 OA
ATOM     27  H   UNL     1      28.551  -3.847  54.141  1.00  0.00    +0.293 HD
ENDBRANCH  20  26
ENDBRANCH   4  17
TORSDOF 6
ENDMDL
MODEL 2
REMARK VINA RESULT:    -8.648      2.746      4.100
REMARK INTER + INTRA:         -11.913
REMARK INTER:                 -11.846
REMARK INTRA:                  -0.067
REMARK UNBOUND:                -0.738
REMARK SMILES CN(c1ccc(O)cc1)c1ccc(-c2cc(O)ccc2[N+](=O)[O-])[nH]1
REMARK SMILES IDX 10 1 11 2 12 3 13 4 24 5 2 7 1 8 3 9 4 10 9 11 5 12 8 13
REMARK SMILES IDX 6 14 7 15 14 17 15 18 20 19 16 20 19 21 18 22 21 23 22 24
REMARK SMILES IDX 23 25 17 26
REMARK H PARENT 24 6 7 16 17 27
ROOT
ATOM      1  C   UNL     1      24.161   1.589  52.624  1.00  0.00    +0.110 A 
ATOM      2  C   UNL     1      24.640   2.528  53.516  1.00  0.00    +0.047 A 
ATOM      3  C   UNL     1      25.938   2.131  53.917  1.00  0.00    +0.031 A 
ATOM      4  C   UNL     1      26.248   0.958  53.251  1.00  0.00    +0.054 A 
ATOM      5  N   UNL     1      25.153   0.651  52.471  1.00  0.00    -0.341 N 
ATOM      6  H   UNL     1      25.106  -0.121  51.823  1.00  0.00    +0.168 HD
ENDROOT
BRANCH   1   7
ATOM      7  N   UNL     1      22.984   1.493  51.930  1.00  0.00    -0.331 N 
ATOM      8  C   UNL     1      23.023   1.696  50.476  1.00  0.00    +0.152 C 
BRANCH   7   9
ATOM      9  C   UNL     1      21.891   0.729  52.422  1.00  0.00    +0.042 A 
ATOM     10  C   UNL     1      20.615   0.742  51.835  1.00  0.00    +0.030 A 
ATOM     11  C   UNL     1      22.063  -0.075  53.568  1.00  0.00    +0.030 A 
ATOM     12  C   UNL     1      19.564  -0.019  52.362  1.00  0.00    +0.048 A 
ATOM     13  C   UNL     1      21.017  -0.837  54.101  1.00  0.00    +0.048 A 
ATOM     14  C   UNL     1      19.773  -0.801  53.489  1.00  0.00    +0.115 A 
BRANCH  14  15
ATOM     15  O   UNL     1      18.722  -1.525  53.968  1.00  0.00    -0.508 OA
ATOM     16  H   UNL     1      18.869  -1.688  54.914  1.00  0.00    +0.293 HD
ENDBRANCH  14  15
ENDBRANCH   7   9
ENDBRANCH   1   7
BRANCH   4  17
ATOM     17  C   UNL     1      27.452   0.128  53.280  1.00  0.00    +0.079 A 
ATOM     18  C   UNL     1      27.336  -1.248  53.031  1.00  0.00    +0.063 A 
ATOM     19  C   UNL     1      28.734   0.623  53.565  1.00  0.00    +0.278 A 
ATOM     20  C   UNL     1      28.460  -2.076  53.073  1.00  0.00    +0.116 A 
ATOM     21  C   UNL     1      29.866  -0.205  53.612  1.00  0.00    +0.090 A 
ATOM     22  C   UNL     1      29.723  -1.568  53.364  1.00  0.00    +0.053 A 
BRANCH  19  23
ATOM     23  N   UNL     1      28.946   2.038  53.783  1.00  0.00    +0.063 N 
ATOM     24  O   UNL     1      29.279   2.384  54.924  1.00  0.00    -0.258 OA
ATOM     25  O   UNL     1      28.837   2.783  52.800  1.00  0.00    -0.258 OA
ENDBRANCH  19  23
BRANCH  20  26
ATOM     26  O   UNL     1      28.271  -3.403  52.821  1.00  0.00    -0.508 OA
ATOM     27  H   UNL     1      27.347  -3.636  53.013  1.00  0.00    +0.293 HD
ENDBRANCH  20  26
ENDBRANCH   4  17
TORSDOF 6
ENDMDL
MODEL 3
REMARK VINA RESULT:    -8.253      1.922      2.700
REMARK INTER + INTRA:         -11.404
REMARK INTER:                 -10.654
REMARK INTRA:                  -0.749
REMARK UNBOUND:                -0.738
REMARK SMILES CN(c1ccc(O)cc1)c1ccc(-c2cc(O)ccc2[N+](=O)[O-])[nH]1
REMARK SMILES IDX 10 1 11 2 12 3 13 4 24 5 2 7 1 8 3 9 4 10 9 11 5 12 8 13
REMARK SMILES IDX 6 14 7 15 14 17 15 18 20 19 16 20 19 21 18 22 21 23 22 24
REMARK SMILES IDX 23 25 17 26
REMARK H PARENT 24 6 7 16 17 27
ROOT
ATOM      1  C   UNL     1      24.581   2.061  51.683  1.00  0.00    +0.110 A 
ATOM      2  C   UNL     1      23.975   1.620  52.842  1.00  0.00    +0.047 A 
ATOM      3  C   UNL     1      24.883   0.766  53.514  1.00  0.00    +0.031 A 
ATOM      4  C   UNL     1      26.045   0.707  52.765  1.00  0.00    +0.054 A 
ATOM      5  N   UNL     1      25.837   1.504  51.659  1.00  0.00    -0.341 N 
ATOM      6  H   UNL     1      26.533   1.707  50.958  1.00  0.00    +0.168 HD
ENDROOT
BRANCH   1   7
ATOM      7  N   UNL     1      24.164   2.904  50.686  1.00  0.00    -0.331 N 
ATOM      8  C   UNL     1      25.188   3.602  49.900  1.00  0.00    +0.152 C 
BRANCH   7   9
ATOM      9  C   UNL     1      22.900   2.741  50.057  1.00  0.00    +0.042 A 
ATOM     10  C   UNL     1      22.608   1.689  49.173  1.00  0.00    +0.030 A 
ATOM     11  C   UNL     1      21.875   3.679  50.300  1.00  0.00    +0.030 A 
ATOM     12  C   UNL     1      21.350   1.575  48.568  1.00  0.00    +0.048 A 
ATOM     13  C   UNL     1      20.617   3.572  49.697  1.00  0.00    +0.048 A 
ATOM     14  C   UNL     1      20.366   2.516  48.834  1.00  0.00    +0.115 A 
BRANCH  14  15
ATOM     15  O   UNL     1      19.157   2.366  48.223  1.00  0.00    -0.508 OA
ATOM     16  H   UNL     1      18.464   2.420  48.900  1.00  0.00    +0.293 HD
ENDBRANCH  14  15
ENDBRANCH   7   9
ENDBRANCH   1   7
BRANCH   4  17
ATOM     17  C   UNL     1      27.300  -0.008  52.997  1.00  0.00    +0.079 A 
ATOM     18  C   UNL     1      27.325  -1.403  52.849  1.00  0.00    +0.063 A 
ATOM     19  C   UNL     1      28.494   0.619  53.384  1.00  0.00    +0.278 A 
ATOM     20  C   UNL     1      28.498  -2.122  53.085  1.00  0.00    +0.116 A 
ATOM     21  C   UNL     1      29.675  -0.101  53.626  1.00  0.00    +0.090 A 
ATOM     22  C   UNL     1      29.672  -1.485  53.474  1.00  0.00    +0.053 A 
BRANCH  19  23
ATOM     23  N   UNL     1      28.565   2.059  53.509  1.00  0.00    +0.063 N 
ATOM     24  O   UNL     1      28.903   2.507  54.613  1.00  0.00    -0.258 OA
ATOM     25  O   UNL     1      28.340   2.725  52.490  1.00  0.00    -0.258 OA
ENDBRANCH  19  23
BRANCH  20  26
ATOM     26  O   UNL     1      28.447  -3.475  52.921  1.00  0.00    -0.508 OA
ATOM     27  H   UNL     1      29.347  -3.815  52.784  1.00  0.00    +0.293 HD
ENDBRANCH  20  26
ENDBRANCH   4  17
TORSDOF 6
ENDMDL
MODEL 4
REMARK VINA RESULT:    -8.226      3.053      4.270
REMARK INTER + INTRA:         -11.369
REMARK INTER:                 -11.484
REMARK INTRA:                   0.116
REMARK UNBOUND:                -0.738
REMARK SMILES CN(c1ccc(O)cc1)c1ccc(-c2cc(O)ccc2[N+](=O)[O-])[nH]1
REMARK SMILES IDX 10 1 11 2 12 3 13 4 24 5 2 7 1 8 3 9 4 10 9 11 5 12 8 13
REMARK SMILES IDX 6 14 7 15 14 17 15 18 20 19 16 20 19 21 18 22 21 23 22 24
REMARK SMILES IDX 23 25 17 26
REMARK H PARENT 24 6 7 16 17 27
ROOT
ATOM      1  C   UNL     1      23.252   0.052  52.991  1.00  0.00    +0.110 A 
ATOM      2  C   UNL     1      23.588   1.089  52.144  1.00  0.00    +0.047 A 
ATOM      3  C   UNL     1      24.998   1.112  52.016  1.00  0.00    +0.031 A 
ATOM      4  C   UNL     1      25.510   0.074  52.774  1.00  0.00    +0.054 A 
ATOM      5  N   UNL     1      24.430  -0.556  53.355  1.00  0.00    -0.341 N 
ATOM      6  H   UNL     1      24.485  -1.390  53.918  1.00  0.00    +0.168 HD
ENDROOT
BRANCH   1   7
ATOM      7  N   UNL     1      22.047  -0.419  53.441  1.00  0.00    -0.331 N 
ATOM      8  C   UNL     1      21.876  -0.607  54.887  1.00  0.00    +0.152 C 
BRANCH   7   9
ATOM      9  C   UNL     1      20.853  -0.239  52.691  1.00  0.00    +0.042 A 
ATOM     10  C   UNL     1      20.826   0.344  51.412  1.00  0.00    +0.030 A 
ATOM     11  C   UNL     1      19.618  -0.639  53.240  1.00  0.00    +0.030 A 
ATOM     12  C   UNL     1      19.623   0.511  50.714  1.00  0.00    +0.048 A 
ATOM     13  C   UNL     1      18.412  -0.474  52.549  1.00  0.00    +0.048 A 
ATOM     14  C   UNL     1      18.428   0.101  51.287  1.00  0.00    +0.115 A 
BRANCH  14  15
ATOM     15  O   UNL     1      17.282   0.283  50.573  1.00  0.00    -0.508 OA
ATOM     16  H   UNL     1      16.644   0.756  51.132  1.00  0.00    +0.293 HD
ENDBRANCH  14  15
ENDBRANCH   7   9
ENDBRANCH   1   7
BRANCH   4  17
ATOM     17  C   UNL     1      26.888  -0.367  52.988  1.00  0.00    +0.079 A 
ATOM     18  C   UNL     1      27.172  -1.741  52.977  1.00  0.00    +0.063 A 
ATOM     19  C   UNL     1      27.959   0.507  53.227  1.00  0.00    +0.278 A 
ATOM     20  C   UNL     1      28.471  -2.202  53.200  1.00  0.00    +0.116 A 
ATOM     21  C   UNL     1      29.267   0.049  53.456  1.00  0.00    +0.090 A 
ATOM     22  C   UNL     1      29.520  -1.320  53.442  1.00  0.00    +0.053 A 
BRANCH  19  23
ATOM     23  N   UNL     1      27.761   1.941  53.204  1.00  0.00    +0.063 N 
ATOM     24  O   UNL     1      27.412   2.473  54.267  1.00  0.00    -0.258 OA
ATOM     25  O   UNL     1      28.010   2.528  52.143  1.00  0.00    -0.258 OA
ENDBRANCH  19  23
BRANCH  20  26
ATOM     26  O   UNL     1      28.671  -3.551  53.175  1.00  0.00    -0.508 OA
ATOM     27  H   UNL     1      28.159  -3.963  53.891  1.00  0.00    +0.293 HD
ENDBRANCH  20  26
ENDBRANCH   4  17
TORSDOF 6
ENDMDL
MODEL 5
REMARK VINA RESULT:    -7.639      4.413      7.723
REMARK INTER + INTRA:         -10.610
REMARK INTER:                  -9.998
REMARK INTRA:                  -0.612
REMARK UNBOUND:                -0.738
REMARK SMILES CN(c1ccc(O)cc1)c1ccc(-c2cc(O)ccc2[N+](=O)[O-])[nH]1
REMARK SMILES IDX 10 1 11 2 12 3 13 4 24 5 2 7 1 8 3 9 4 10 9 11 5 12 8 13
REMARK SMILES IDX 6 14 7 15 14 17 15 18 20 19 16 20 19 21 18 22 21 23 22 24
REMARK SMILES IDX 23 25 17 26
REMARK H PARENT 24 6 7 16 17 27
ROOT
ATOM      1  C   UNL     1      23.516   0.009  53.598  1.00  0.00    +0.110 A 
ATOM      2  C   UNL     1      23.394  -0.874  54.652  1.00  0.00    +0.047 A 
ATOM      3  C   UNL     1      22.042  -1.289  54.725  1.00  0.00    +0.031 A 
ATOM      4  C   UNL     1      21.352  -0.666  53.699  1.00  0.00    +0.054 A 
ATOM      5  N   UNL     1      22.269   0.114  53.028  1.00  0.00    -0.341 N 
ATOM      6  H   UNL     1      22.073   0.642  52.192  1.00  0.00    +0.168 HD
ENDROOT
BRANCH   1   7
ATOM      7  N   UNL     1      24.587   0.689  53.082  1.00  0.00    -0.331 N 
ATOM      8  C   UNL     1      24.426   2.121  52.806  1.00  0.00    +0.152 C 
BRANCH   7   9
ATOM      9  C   UNL     1      25.920   0.240  53.287  1.00  0.00    +0.042 A 
ATOM     10  C   UNL     1      26.465  -0.882  52.639  1.00  0.00    +0.030 A 
ATOM     11  C   UNL     1      26.754   0.924  54.196  1.00  0.00    +0.030 A 
ATOM     12  C   UNL     1      27.781  -1.294  52.881  1.00  0.00    +0.048 A 
ATOM     13  C   UNL     1      28.069   0.517  54.443  1.00  0.00    +0.048 A 
ATOM     14  C   UNL     1      28.572  -0.592  53.780  1.00  0.00    +0.115 A 
BRANCH  14  15
ATOM     15  O   UNL     1      29.846  -1.028  53.985  1.00  0.00    -0.508 OA
ATOM     16  H   UNL     1      29.807  -1.902  54.407  1.00  0.00    +0.293 HD
ENDBRANCH  14  15
ENDBRANCH   7   9
ENDBRANCH   1   7
BRANCH   4  17
ATOM     17  C   UNL     1      19.946  -0.746  53.304  1.00  0.00    +0.079 A 
ATOM     18  C   UNL     1      19.179  -1.839  53.736  1.00  0.00    +0.063 A 
ATOM     19  C   UNL     1      19.309   0.205  52.492  1.00  0.00    +0.278 A 
ATOM     20  C   UNL     1      17.840  -1.961  53.360  1.00  0.00    +0.116 A 
ATOM     21  C   UNL     1      17.964   0.084  52.108  1.00  0.00    +0.090 A 
ATOM     22  C   UNL     1      17.226  -1.012  52.549  1.00  0.00    +0.053 A 
BRANCH  19  23
ATOM     23  N   UNL     1      20.015   1.387  52.047  1.00  0.00    +0.063 N 
ATOM     24  O   UNL     1      20.520   1.343  50.917  1.00  0.00    -0.258 OA
ATOM     25  O   UNL     1      20.010   2.366  52.804  1.00  0.00    -0.258 OA
ENDBRANCH  19  23
BRANCH  20  26
ATOM     26  O   UNL     1      17.157  -3.050  53.818  1.00  0.00    -0.508 OA
ATOM     27  H   UNL     1      16.316  -3.125  53.336  1.00  0.00    +0.293 HD
ENDBRANCH  20  26
ENDBRANCH   4  17
TORSDOF 6
ENDMDL
MODEL 6
REMARK VINA RESULT:    -7.556      2.821      4.357
REMARK INTER + INTRA:         -10.503
REMARK INTER:                  -9.647
REMARK INTRA:                  -0.855
REMARK UNBOUND:                -0.738
REMARK SMILES CN(c1ccc(O)cc1)c1ccc(-c2cc(O)ccc2[N+](=O)[O-])[nH]1
REMARK SMILES IDX 10 1 11 2 12 3 13 4 24 5 2 7 1 8 3 9 4 10 9 11 5 12 8 13
REMARK SMILES IDX 6 14 7 15 14 17 15 18 20 19 16 20 19 21 18 22 21 23 22 24
REMARK SMILES IDX 23 25 17 26
REMARK H PARENT 24 6 7 16 17 27
ROOT
ATOM      1  C   UNL     1      23.526   3.391  50.767  1.00  0.00    +0.110 A 
ATOM      2  C   UNL     1      22.804   2.557  49.937  1.00  0.00    +0.047 A 
ATOM      3  C   UNL     1      22.613   1.325  50.610  1.00  0.00    +0.031 A 
ATOM      4  C   UNL     1      23.207   1.426  51.856  1.00  0.00    +0.054 A 
ATOM      5  N   UNL     1      23.752   2.691  51.928  1.00  0.00    -0.341 N 
ATOM      6  H   UNL     1      24.200   3.078  52.744  1.00  0.00    +0.168 HD
ENDROOT
BRANCH   1   7
ATOM      7  N   UNL     1      23.967   4.679  50.623  1.00  0.00    -0.331 N 
ATOM      8  C   UNL     1      23.549   5.668  51.624  1.00  0.00    +0.152 C 
BRANCH   7   9
ATOM      9  C   UNL     1      25.161   4.980  49.912  1.00  0.00    +0.042 A 
ATOM     10  C   UNL     1      26.160   4.029  49.645  1.00  0.00    +0.030 A 
ATOM     11  C   UNL     1      25.389   6.295  49.457  1.00  0.00    +0.030 A 
ATOM     12  C   UNL     1      27.326   4.373  48.951  1.00  0.00    +0.048 A 
ATOM     13  C   UNL     1      26.552   6.647  48.764  1.00  0.00    +0.048 A 
ATOM     14  C   UNL     1      27.513   5.678  48.516  1.00  0.00    +0.115 A 
BRANCH  14  15
ATOM     15  O   UNL     1      28.662   5.969  47.844  1.00  0.00    -0.508 OA
ATOM     16  H   UNL     1      29.409   5.867  48.456  1.00  0.00    +0.293 HD
ENDBRANCH  14  15
ENDBRANCH   7   9
ENDBRANCH   1   7
BRANCH   4  17
ATOM     17  C   UNL     1      23.297   0.465  52.955  1.00  0.00    +0.079 A 
ATOM     18  C   UNL     1      22.115  -0.072  53.487  1.00  0.00    +0.063 A 
ATOM     19  C   UNL     1      24.507   0.055  53.535  1.00  0.00    +0.278 A 
ATOM     20  C   UNL     1      22.159  -0.974  54.552  1.00  0.00    +0.116 A 
ATOM     21  C   UNL     1      24.557  -0.849  54.609  1.00  0.00    +0.090 A 
ATOM     22  C   UNL     1      23.368  -1.365  55.119  1.00  0.00    +0.053 A 
BRANCH  19  23
ATOM     23  N   UNL     1      25.772   0.523  53.012  1.00  0.00    +0.063 N 
ATOM     24  O   UNL     1      26.285  -0.150  52.107  1.00  0.00    -0.258 OA
ATOM     25  O   UNL     1      26.212   1.587  53.466  1.00  0.00    -0.258 OA
ENDBRANCH  19  23
BRANCH  20  26
ATOM     26  O   UNL     1      20.970  -1.455  55.017  1.00  0.00    -0.508 OA
ATOM     27  H   UNL     1      20.912  -1.292  55.973  1.00  0.00    +0.293 HD
ENDBRANCH  20  26
ENDBRANCH   4  17
TORSDOF 6
ENDMDL
MODEL 7
REMARK VINA RESULT:    -7.355      3.779      6.936
REMARK INTER + INTRA:         -10.243
REMARK INTER:                  -9.371
REMARK INTRA:                  -0.872
REMARK UNBOUND:                -0.738
REMARK SMILES CN(c1ccc(O)cc1)c1ccc(-c2cc(O)ccc2[N+](=O)[O-])[nH]1
REMARK SMILES IDX 10 1 11 2 12 3 13 4 24 5 2 7 1 8 3 9 4 10 9 11 5 12 8 13
REMARK SMILES IDX 6 14 7 15 14 17 15 18 20 19 16 20 19 21 18 22 21 23 22 24
REMARK SMILES IDX 23 25 17 26
REMARK H PARENT 24 6 7 16 17 27
ROOT
ATOM      1  C   UNL     1      21.912   2.146  50.927  1.00  0.00    +0.110 A 
ATOM      2  C   UNL     1      21.924   1.521  49.697  1.00  0.00    +0.047 A 
ATOM      3  C   UNL     1      22.826   2.219  48.858  1.00  0.00    +0.031 A 
ATOM      4  C   UNL     1      23.373   3.256  49.592  1.00  0.00    +0.054 A 
ATOM      5  N   UNL     1      22.803   3.190  50.846  1.00  0.00    -0.341 N 
ATOM      6  H   UNL     1      23.052   3.783  51.623  1.00  0.00    +0.168 HD
ENDROOT
BRANCH   1   7
ATOM      7  N   UNL     1      21.239   1.882  52.091  1.00  0.00    -0.331 N 
ATOM      8  C   UNL     1      19.800   2.170  52.135  1.00  0.00    +0.152 C 
BRANCH   7   9
ATOM      9  C   UNL     1      21.708   0.911  53.016  1.00  0.00    +0.042 A 
ATOM     10  C   UNL     1      23.058   0.536  53.122  1.00  0.00    +0.030 A 
ATOM     11  C   UNL     1      20.793   0.262  53.870  1.00  0.00    +0.030 A 
ATOM     12  C   UNL     1      23.474  -0.434  54.042  1.00  0.00    +0.048 A 
ATOM     13  C   UNL     1      21.200  -0.710  54.790  1.00  0.00    +0.048 A 
ATOM     14  C   UNL     1      22.543  -1.049  54.868  1.00  0.00    +0.115 A 
BRANCH  14  15
ATOM     15  O   UNL     1      22.991  -1.987  55.748  1.00  0.00    -0.508 OA
ATOM     16  H   UNL     1      22.231  -2.325  56.249  1.00  0.00    +0.293 HD
ENDBRANCH  14  15
ENDBRANCH   7   9
ENDBRANCH   1   7
BRANCH   4  17
ATOM     17  C   UNL     1      24.361   4.271  49.228  1.00  0.00    +0.079 A 
ATOM     18  C   UNL     1      25.725   3.957  49.322  1.00  0.00    +0.063 A 
ATOM     19  C   UNL     1      24.029   5.567  48.804  1.00  0.00    +0.278 A 
ATOM     20  C   UNL     1      26.698   4.907  49.006  1.00  0.00    +0.116 A 
ATOM     21  C   UNL     1      25.003   6.527  48.488  1.00  0.00    +0.090 A 
ATOM     22  C   UNL     1      26.350   6.189  48.593  1.00  0.00    +0.053 A 
BRANCH  19  23
ATOM     23  N   UNL     1      22.645   5.954  48.632  1.00  0.00    +0.063 N 
ATOM     24  O   UNL     1      22.201   5.939  47.475  1.00  0.00    -0.258 OA
ATOM     25  O   UNL     1      21.999   6.212  49.656  1.00  0.00    -0.258 OA
ENDBRANCH  19  23
BRANCH  20  26
ATOM     26  O   UNL     1      28.004   4.530  49.121  1.00  0.00    -0.508 OA
ATOM     27  H   UNL     1      28.367   4.883  49.950  1.00  0.00    +0.293 HD
ENDBRANCH  20  26
ENDBRANCH   4  17
TORSDOF 6
ENDMDL
MODEL 8
REMARK VINA RESULT:    -7.346      1.996      6.732
REMARK INTER + INTRA:         -10.231
REMARK INTER:                  -9.586
REMARK INTRA:                  -0.645
REMARK UNBOUND:                -0.738
REMARK SMILES CN(c1ccc(O)cc1)c1ccc(-c2cc(O)ccc2[N+](=O)[O-])[nH]1
REMARK SMILES IDX 10 1 11 2 12 3 13 4 24 5 2 7 1 8 3 9 4 10 9 11 5 12 8 13
REMARK SMILES IDX 6 14 7 15 14 17 15 18 20 19 16 20 19 21 18 22 21 23 22 24
REMARK SMILES IDX 23 25 17 26
REMARK H PARENT 24 6 7 16 17 27
ROOT
ATOM      1  C   UNL     1      24.281   1.319  52.103  1.00  0.00    +0.110 A 
ATOM      2  C   UNL     1      23.178   1.373  51.275  1.00  0.00    +0.047 A 
ATOM      3  C   UNL     1      23.371   2.432  50.355  1.00  0.00    +0.031 A 
ATOM      4  C   UNL     1      24.603   3.005  50.620  1.00  0.00    +0.054 A 
ATOM      5  N   UNL     1      25.136   2.310  51.685  1.00  0.00    -0.341 N 
ATOM      6  H   UNL     1      26.057   2.461  52.067  1.00  0.00    +0.168 HD
ENDROOT
BRANCH   1   7
ATOM      7  N   UNL     1      24.615   0.491  53.142  1.00  0.00    -0.331 N 
ATOM      8  C   UNL     1      23.588  -0.424  53.653  1.00  0.00    +0.152 C 
BRANCH   7   9
ATOM      9  C   UNL     1      25.964   0.111  53.384  1.00  0.00    +0.042 A 
ATOM     10  C   UNL     1      26.783   0.739  54.338  1.00  0.00    +0.030 A 
ATOM     11  C   UNL     1      26.539  -0.933  52.631  1.00  0.00    +0.030 A 
ATOM     12  C   UNL     1      28.109   0.337  54.534  1.00  0.00    +0.048 A 
ATOM     13  C   UNL     1      27.865  -1.339  52.822  1.00  0.00    +0.048 A 
ATOM     14  C   UNL     1      28.639  -0.697  53.776  1.00  0.00    +0.115 A 
BRANCH  14  15
ATOM     15  O   UNL     1      29.935  -1.055  54.001  1.00  0.00    -0.508 OA
ATOM     16  H   UNL     1      30.510  -0.445  53.511  1.00  0.00    +0.293 HD
ENDBRANCH  14  15
ENDBRANCH   7   9
ENDBRANCH   1   7
BRANCH   4  17
ATOM     17  C   UNL     1      25.303   4.114  49.972  1.00  0.00    +0.079 A 
ATOM     18  C   UNL     1      26.579   3.890  49.432  1.00  0.00    +0.063 A 
ATOM     19  C   UNL     1      24.782   5.413  49.872  1.00  0.00    +0.278 A 
ATOM     20  C   UNL     1      27.288   4.930  48.827  1.00  0.00    +0.116 A 
ATOM     21  C   UNL     1      25.493   6.463  49.268  1.00  0.00    +0.090 A 
ATOM     22  C   UNL     1      26.758   6.214  48.742  1.00  0.00    +0.053 A 
BRANCH  19  23
ATOM     23  N   UNL     1      23.453   5.715  50.358  1.00  0.00    +0.063 N 
ATOM     24  O   UNL     1      22.540   5.717  49.520  1.00  0.00    -0.258 OA
ATOM     25  O   UNL     1      23.323   5.888  51.576  1.00  0.00    -0.258 OA
ENDBRANCH  19  23
BRANCH  20  26
ATOM     26  O   UNL     1      28.522   4.638  48.325  1.00  0.00    -0.508 OA
ATOM     27  H   UNL     1      29.161   4.590  49.055  1.00  0.00    +0.293 HD
ENDBRANCH  20  26
ENDBRANCH   4  17
TORSDOF 6
ENDMDL
MODEL 9
REMARK VINA RESULT:    -7.248      2.835      4.208
REMARK INTER + INTRA:         -10.104
REMARK INTER:                  -9.142
REMARK INTRA:                  -0.962
REMARK UNBOUND:                -0.738
REMARK SMILES CN(c1ccc(O)cc1)c1ccc(-c2cc(O)ccc2[N+](=O)[O-])[nH]1
REMARK SMILES IDX 10 1 11 2 12 3 13 4 24 5 2 7 1 8 3 9 4 10 9 11 5 12 8 13
REMARK SMILES IDX 6 14 7 15 14 17 15 18 20 19 16 20 19 21 18 22 21 23 22 24
REMARK SMILES IDX 23 25 17 26
REMARK H PARENT 24 6 7 16 17 27
ROOT
ATOM      1  C   UNL     1      24.392   3.176  51.279  1.00  0.00    +0.110 A 
ATOM      2  C   UNL     1      25.285   3.255  50.229  1.00  0.00    +0.047 A 
ATOM      3  C   UNL     1      26.519   2.713  50.660  1.00  0.00    +0.031 A 
ATOM      4  C   UNL     1      26.363   2.290  51.969  1.00  0.00    +0.054 A 
ATOM      5  N   UNL     1      25.062   2.580  52.320  1.00  0.00    -0.341 N 
ATOM      6  H   UNL     1      24.635   2.332  53.199  1.00  0.00    +0.168 HD
ENDROOT
BRANCH   1   7
ATOM      7  N   UNL     1      23.076   3.537  51.400  1.00  0.00    -0.331 N 
ATOM      8  C   UNL     1      22.676   4.862  50.912  1.00  0.00    +0.152 C 
BRANCH   7   9
ATOM      9  C   UNL     1      22.043   2.563  51.475  1.00  0.00    +0.042 A 
ATOM     10  C   UNL     1      22.066   1.357  50.755  1.00  0.00    +0.030 A 
ATOM     11  C   UNL     1      20.918   2.802  52.291  1.00  0.00    +0.030 A 
ATOM     12  C   UNL     1      21.019   0.432  50.851  1.00  0.00    +0.048 A 
ATOM     13  C   UNL     1      19.868   1.883  52.392  1.00  0.00    +0.048 A 
ATOM     14  C   UNL     1      19.930   0.702  51.667  1.00  0.00    +0.115 A 
BRANCH  14  15
ATOM     15  O   UNL     1      18.934  -0.227  51.731  1.00  0.00    -0.508 OA
ATOM     16  H   UNL     1      19.306  -1.049  52.089  1.00  0.00    +0.293 HD
ENDBRANCH  14  15
ENDBRANCH   7   9
ENDBRANCH   1   7
BRANCH   4  17
ATOM     17  C   UNL     1      27.304   1.649  52.887  1.00  0.00    +0.079 A 
ATOM     18  C   UNL     1      28.295   2.431  53.501  1.00  0.00    +0.063 A 
ATOM     19  C   UNL     1      27.292   0.278  53.184  1.00  0.00    +0.278 A 
ATOM     20  C   UNL     1      29.225   1.850  54.366  1.00  0.00    +0.116 A 
ATOM     21  C   UNL     1      28.228  -0.312  54.050  1.00  0.00    +0.090 A 
ATOM     22  C   UNL     1      29.202   0.487  54.644  1.00  0.00    +0.053 A 
BRANCH  19  23
ATOM     23  N   UNL     1      26.272  -0.588  52.633  1.00  0.00    +0.063 N 
ATOM     24  O   UNL     1      25.134  -0.483  53.110  1.00  0.00    -0.258 OA
ATOM     25  O   UNL     1      26.601  -1.320  51.690  1.00  0.00    -0.258 OA
ENDBRANCH  19  23
BRANCH  20  26
ATOM     26  O   UNL     1      30.158   2.672  54.926  1.00  0.00    -0.508 OA
ATOM     27  H   UNL     1      29.731   3.500  55.201  1.00  0.00    +0.293 HD
ENDBRANCH  20  26
ENDBRANCH   4  17
TORSDOF 6
ENDMDL
