MODEL 1
REMARK VINA RESULT:    -8.651      0.000      0.000
REMARK INTER + INTRA:         -12.610
REMARK INTER:                 -11.179
REMARK INTRA:                  -1.430
REMARK UNBOUND:                -1.430
REMARK SMILES Brc1cccc(C/N=N/Nc2ccc3ncnc(-c4ccccc4)c3c2)c1
REMARK SMILES IDX 8 1 9 2 7 3 6 4 2 5 3 6 27 7 4 8 5 9 1 10 10 11 11 13 12 14
REMARK SMILES IDX 26 15 13 16 25 17 14 18 18 19 15 20 17 21 16 22 19 23 20 24
REMARK SMILES IDX 24 25 21 26 23 27 22 28
REMARK H PARENT 10 12
ROOT
ATOM      1  N   UNL     1      22.277   3.099  49.457  1.00  0.00    -0.166 NA
ATOM      2  N   UNL     1      21.426   2.977  50.356  1.00  0.00    -0.074 NA
ENDROOT
BRANCH   1   3
ATOM      3  C   UNL     1      22.879   4.442  49.437  1.00  0.00    +0.204 C 
BRANCH   3   4
ATOM      4  C   UNL     1      24.384   4.402  49.333  1.00  0.00    -0.024 A 
ATOM      5  C   UNL     1      26.481   5.486  48.781  1.00  0.00    +0.018 A 
ATOM      6  C   UNL     1      27.183   4.332  49.121  1.00  0.00    +0.016 A 
ATOM      7  C   UNL     1      25.091   5.527  48.882  1.00  0.00    +0.021 A 
ATOM      8  C   UNL     1      26.488   3.207  49.566  1.00  0.00    +0.002 A 
ATOM      9  C   UNL     1      25.096   3.241  49.671  1.00  0.00    +0.006 A 
ATOM     10 Br   UNL     1      27.420   7.008  48.170  1.00  0.00    -0.051 Br
ENDBRANCH   3   4
ENDBRANCH   1   3
BRANCH   2  11
ATOM     11  N   UNL     1      20.983   1.709  50.269  1.00  0.00    -0.260 N 
ATOM     12  H   UNL     1      20.176   1.574  49.673  1.00  0.00    +0.192 HD
BRANCH  11  13
ATOM     13  C   UNL     1      21.086   0.864  51.385  1.00  0.00    +0.059 A 
ATOM     14  C   UNL     1      19.977   0.267  51.984  1.00  0.00    +0.030 A 
ATOM     15  C   UNL     1      22.327   0.693  52.006  1.00  0.00    +0.040 A 
ATOM     16  C   UNL     1      20.120  -0.512  53.140  1.00  0.00    +0.031 A 
ATOM     17  C   UNL     1      22.476  -0.104  53.175  1.00  0.00    +0.029 A 
ATOM     18  C   UNL     1      21.351  -0.709  53.746  1.00  0.00    +0.074 A 
ATOM     19  C   UNL     1      23.683  -0.345  53.854  1.00  0.00    +0.081 A 
ATOM     20  N   UNL     1      21.410  -1.458  54.854  1.00  0.00    -0.236 NA
ATOM     21  N   UNL     1      23.760  -1.082  54.984  1.00  0.00    -0.236 NA
ATOM     22  C   UNL     1      22.612  -1.604  55.423  1.00  0.00    +0.223 A 
BRANCH  19  23
ATOM     23  C   UNL     1      24.982   0.176  53.399  1.00  0.00    +0.001 A 
ATOM     24  C   UNL     1      25.306   1.536  53.538  1.00  0.00    +0.010 A 
ATOM     25  C   UNL     1      25.923  -0.676  52.799  1.00  0.00    +0.010 A 
ATOM     26  C   UNL     1      26.544   2.024  53.112  1.00  0.00    +0.001 A 
ATOM     27  C   UNL     1      27.160  -0.188  52.373  1.00  0.00    +0.001 A 
ATOM     28  C   UNL     1      27.471   1.162  52.532  1.00  0.00    +0.000 A 
ENDBRANCH  19  23
ENDBRANCH  11  13
ENDBRANCH   2  11
TORSDOF 5
ENDMDL
MODEL 2
REMARK VINA RESULT:    -8.316      1.800      2.538
REMARK INTER + INTRA:         -12.176
REMARK INTER:                 -11.381
REMARK INTRA:                  -0.796
REMARK UNBOUND:                -1.430
REMARK SMILES Brc1cccc(C/N=N/Nc2ccc3ncnc(-c4ccccc4)c3c2)c1
REMARK SMILES IDX 8 1 9 2 7 3 6 4 2 5 3 6 27 7 4 8 5 9 1 10 10 11 11 13 12 14
REMARK SMILES IDX 26 15 13 16 25 17 14 18 18 19 15 20 17 21 16 22 19 23 20 24
REMARK SMILES IDX 24 25 21 26 23 27 22 28
REMARK H PARENT 10 12
ROOT
ATOM      1  N   UNL     1      25.296   3.648  49.549  1.00  0.00    -0.166 NA
ATOM      2  N   UNL     1      24.947   3.424  50.722  1.00  0.00    -0.074 NA
ENDROOT
BRANCH   1   3
ATOM      3  C   UNL     1      26.730   3.959  49.443  1.00  0.00    +0.204 C 
BRANCH   3   4
ATOM      4  C   UNL     1      26.988   5.279  48.758  1.00  0.00    -0.024 A 
ATOM      5  C   UNL     1      28.525   6.848  47.731  1.00  0.00    +0.018 A 
ATOM      6  C   UNL     1      27.480   7.740  47.498  1.00  0.00    +0.016 A 
ATOM      7  C   UNL     1      28.287   5.625  48.357  1.00  0.00    +0.021 A 
ATOM      8  C   UNL     1      26.186   7.406  47.896  1.00  0.00    +0.002 A 
ATOM      9  C   UNL     1      25.941   6.183  48.524  1.00  0.00    +0.006 A 
ATOM     10 Br   UNL     1      30.281   7.301  47.198  1.00  0.00    -0.051 Br
ENDBRANCH   3   4
ENDBRANCH   1   3
BRANCH   2  11
ATOM     11  N   UNL     1      23.635   3.137  50.665  1.00  0.00    -0.260 N 
ATOM     12  H   UNL     1      23.034   3.909  50.401  1.00  0.00    +0.192 HD
BRANCH  11  13
ATOM     13  C   UNL     1      23.093   2.202  51.560  1.00  0.00    +0.059 A 
ATOM     14  C   UNL     1      21.725   2.105  51.815  1.00  0.00    +0.030 A 
ATOM     15  C   UNL     1      23.951   1.403  52.324  1.00  0.00    +0.040 A 
ATOM     16  C   UNL     1      21.236   1.204  52.770  1.00  0.00    +0.031 A 
ATOM     17  C   UNL     1      23.457   0.482  53.288  1.00  0.00    +0.029 A 
ATOM     18  C   UNL     1      22.079   0.389  53.511  1.00  0.00    +0.074 A 
ATOM     19  C   UNL     1      24.241  -0.370  54.085  1.00  0.00    +0.081 A 
ATOM     20  N   UNL     1      21.541  -0.440  54.414  1.00  0.00    -0.236 NA
ATOM     21  N   UNL     1      23.718  -1.199  55.015  1.00  0.00    -0.236 NA
ATOM     22  C   UNL     1      22.388  -1.191  55.126  1.00  0.00    +0.223 A 
BRANCH  19  23
ATOM     23  C   UNL     1      25.707  -0.445  53.983  1.00  0.00    +0.001 A 
ATOM     24  C   UNL     1      26.533   0.270  54.866  1.00  0.00    +0.010 A 
ATOM     25  C   UNL     1      26.315  -1.226  52.987  1.00  0.00    +0.010 A 
ATOM     26  C   UNL     1      27.925   0.189  54.770  1.00  0.00    +0.001 A 
ATOM     27  C   UNL     1      27.705  -1.308  52.891  1.00  0.00    +0.001 A 
ATOM     28  C   UNL     1      28.509  -0.602  53.784  1.00  0.00    +0.000 A 
ENDBRANCH  19  23
ENDBRANCH  11  13
ENDBRANCH   2  11
TORSDOF 5
ENDMDL
MODEL 3
REMARK VINA RESULT:    -8.251      2.511      5.671
REMARK INTER + INTRA:         -12.092
REMARK INTER:                 -10.581
REMARK INTRA:                  -1.511
REMARK UNBOUND:                -1.430
REMARK SMILES Brc1cccc(C/N=N/Nc2ccc3ncnc(-c4ccccc4)c3c2)c1
REMARK SMILES IDX 8 1 9 2 7 3 6 4 2 5 3 6 27 7 4 8 5 9 1 10 10 11 11 13 12 14
REMARK SMILES IDX 26 15 13 16 25 17 14 18 18 19 15 20 17 21 16 22 19 23 20 24
REMARK SMILES IDX 24 25 21 26 23 27 22 28
REMARK H PARENT 10 12
ROOT
ATOM      1  N   UNL     1      22.583  -1.692  55.140  1.00  0.00    -0.166 NA
ATOM      2  N   UNL     1      21.694  -0.824  55.211  1.00  0.00    -0.074 NA
ENDROOT
BRANCH   1   3
ATOM      3  C   UNL     1      23.854  -1.239  55.727  1.00  0.00    +0.204 C 
BRANCH   3   4
ATOM      4  C   UNL     1      24.829  -0.745  54.686  1.00  0.00    -0.024 A 
ATOM      5  C   UNL     1      27.028   0.090  54.097  1.00  0.00    +0.018 A 
ATOM      6  C   UNL     1      26.647   0.190  52.761  1.00  0.00    +0.016 A 
ATOM      7  C   UNL     1      26.130  -0.373  55.058  1.00  0.00    +0.021 A 
ATOM      8  C   UNL     1      25.355  -0.173  52.383  1.00  0.00    +0.002 A 
ATOM      9  C   UNL     1      24.450  -0.637  53.340  1.00  0.00    +0.006 A 
ATOM     10 Br   UNL     1      28.777   0.589  54.613  1.00  0.00    -0.051 Br
ENDBRANCH   3   4
ENDBRANCH   1   3
BRANCH   2  11
ATOM     11  N   UNL     1      20.598  -1.379  54.663  1.00  0.00    -0.260 N 
ATOM     12  H   UNL     1      20.572  -2.391  54.679  1.00  0.00    +0.192 HD
BRANCH  11  13
ATOM     13  C   UNL     1      19.983  -0.755  53.567  1.00  0.00    +0.059 A 
ATOM     14  C   UNL     1      18.704  -1.093  53.125  1.00  0.00    +0.030 A 
ATOM     15  C   UNL     1      20.710   0.163  52.801  1.00  0.00    +0.040 A 
ATOM     16  C   UNL     1      18.159  -0.494  51.982  1.00  0.00    +0.031 A 
ATOM     17  C   UNL     1      20.156   0.779  51.645  1.00  0.00    +0.029 A 
ATOM     18  C   UNL     1      18.862   0.438  51.234  1.00  0.00    +0.074 A 
ATOM     19  C   UNL     1      20.804   1.722  50.828  1.00  0.00    +0.081 A 
ATOM     20  N   UNL     1      18.281   0.961  50.148  1.00  0.00    -0.236 NA
ATOM     21  N   UNL     1      20.241   2.246  49.718  1.00  0.00    -0.236 NA
ATOM     22  C   UNL     1      19.001   1.838  49.439  1.00  0.00    +0.223 A 
BRANCH  19  23
ATOM     23  C   UNL     1      22.155   2.234  51.105  1.00  0.00    +0.001 A 
ATOM     24  C   UNL     1      23.122   2.316  50.088  1.00  0.00    +0.010 A 
ATOM     25  C   UNL     1      22.514   2.640  52.400  1.00  0.00    +0.010 A 
ATOM     26  C   UNL     1      24.401   2.810  50.355  1.00  0.00    +0.001 A 
ATOM     27  C   UNL     1      23.792   3.135  52.666  1.00  0.00    +0.001 A 
ATOM     28  C   UNL     1      24.734   3.222  51.643  1.00  0.00    +0.000 A 
ENDBRANCH  19  23
ENDBRANCH  11  13
ENDBRANCH   2  11
TORSDOF 5
ENDMDL
MODEL 4
REMARK VINA RESULT:    -8.031      2.271      3.664
REMARK INTER + INTRA:         -11.809
REMARK INTER:                 -10.258
REMARK INTRA:                  -1.551
REMARK UNBOUND:                -1.430
REMARK SMILES Brc1cccc(C/N=N/Nc2ccc3ncnc(-c4ccccc4)c3c2)c1
REMARK SMILES IDX 8 1 9 2 7 3 6 4 2 5 3 6 27 7 4 8 5 9 1 10 10 11 11 13 12 14
REMARK SMILES IDX 26 15 13 16 25 17 14 18 18 19 15 20 17 21 16 22 19 23 20 24
REMARK SMILES IDX 24 25 21 26 23 27 22 28
REMARK H PARENT 10 12
ROOT
ATOM      1  N   UNL     1      20.200   2.854  52.733  1.00  0.00    -0.166 NA
ATOM      2  N   UNL     1      19.992   1.720  52.263  1.00  0.00    -0.074 NA
ENDROOT
BRANCH   1   3
ATOM      3  C   UNL     1      20.042   3.913  51.724  1.00  0.00    +0.204 C 
BRANCH   3   4
ATOM      4  C   UNL     1      21.275   4.774  51.589  1.00  0.00    -0.024 A 
ATOM      5  C   UNL     1      22.477   6.562  50.477  1.00  0.00    +0.018 A 
ATOM      6  C   UNL     1      23.569   6.370  51.320  1.00  0.00    +0.016 A 
ATOM      7  C   UNL     1      21.335   5.772  50.605  1.00  0.00    +0.021 A 
ATOM      8  C   UNL     1      23.520   5.378  52.298  1.00  0.00    +0.002 A 
ATOM      9  C   UNL     1      22.380   4.583  52.432  1.00  0.00    +0.006 A 
ATOM     10 Br   UNL     1      22.544   7.901  49.144  1.00  0.00    -0.051 Br
ENDBRANCH   3   4
ENDBRANCH   1   3
BRANCH   2  11
ATOM     11  N   UNL     1      20.148   0.865  53.290  1.00  0.00    -0.260 N 
ATOM     12  H   UNL     1      19.556   1.041  54.092  1.00  0.00    +0.192 HD
BRANCH  11  13
ATOM     13  C   UNL     1      21.418   0.331  53.556  1.00  0.00    +0.059 A 
ATOM     14  C   UNL     1      21.644  -0.620  54.551  1.00  0.00    +0.030 A 
ATOM     15  C   UNL     1      22.534   0.842  52.885  1.00  0.00    +0.040 A 
ATOM     16  C   UNL     1      22.941  -1.073  54.829  1.00  0.00    +0.031 A 
ATOM     17  C   UNL     1      23.851   0.379  53.160  1.00  0.00    +0.029 A 
ATOM     18  C   UNL     1      24.049  -0.590  54.149  1.00  0.00    +0.074 A 
ATOM     19  C   UNL     1      25.025   0.822  52.525  1.00  0.00    +0.081 A 
ATOM     20  N   UNL     1      25.258  -1.061  54.475  1.00  0.00    -0.236 NA
ATOM     21  N   UNL     1      26.255   0.372  52.854  1.00  0.00    -0.236 NA
ATOM     22  C   UNL     1      26.305  -0.553  53.814  1.00  0.00    +0.223 A 
BRANCH  19  23
ATOM     23  C   UNL     1      25.028   1.814  51.438  1.00  0.00    +0.001 A 
ATOM     24  C   UNL     1      26.146   2.634  51.209  1.00  0.00    +0.010 A 
ATOM     25  C   UNL     1      23.904   1.973  50.612  1.00  0.00    +0.010 A 
ATOM     26  C   UNL     1      26.147   3.569  50.171  1.00  0.00    +0.001 A 
ATOM     27  C   UNL     1      23.905   2.907  49.574  1.00  0.00    +0.001 A 
ATOM     28  C   UNL     1      25.028   3.703  49.353  1.00  0.00    +0.000 A 
ENDBRANCH  19  23
ENDBRANCH  11  13
ENDBRANCH   2  11
TORSDOF 5
ENDMDL
MODEL 5
REMARK VINA RESULT:    -7.989      2.150      4.336
REMARK INTER + INTRA:         -11.755
REMARK INTER:                 -10.922
REMARK INTRA:                  -0.833
REMARK UNBOUND:                -1.430
REMARK SMILES Brc1cccc(C/N=N/Nc2ccc3ncnc(-c4ccccc4)c3c2)c1
REMARK SMILES IDX 8 1 9 2 7 3 6 4 2 5 3 6 27 7 4 8 5 9 1 10 10 11 11 13 12 14
REMARK SMILES IDX 26 15 13 16 25 17 14 18 18 19 15 20 17 21 16 22 19 23 20 24
REMARK SMILES IDX 24 25 21 26 23 27 22 28
REMARK H PARENT 10 12
ROOT
ATOM      1  N   UNL     1      26.482   2.615  51.256  1.00  0.00    -0.166 NA
ATOM      2  N   UNL     1      26.694   1.424  51.552  1.00  0.00    -0.074 NA
ENDROOT
BRANCH   1   3
ATOM      3  C   UNL     1      26.485   2.837  49.802  1.00  0.00    +0.204 C 
BRANCH   3   4
ATOM      4  C   UNL     1      26.550   4.301  49.440  1.00  0.00    -0.024 A 
ATOM      5  C   UNL     1      25.610   6.534  49.545  1.00  0.00    +0.018 A 
ATOM      6  C   UNL     1      26.651   7.024  48.760  1.00  0.00    +0.016 A 
ATOM      7  C   UNL     1      25.553   5.183  49.885  1.00  0.00    +0.021 A 
ATOM      8  C   UNL     1      27.644   6.154  48.309  1.00  0.00    +0.002 A 
ATOM      9  C   UNL     1      27.593   4.800  48.647  1.00  0.00    +0.006 A 
ATOM     10 Br   UNL     1      24.259   7.710  50.149  1.00  0.00    -0.051 Br
ENDBRANCH   3   4
ENDBRANCH   1   3
BRANCH   2  11
ATOM     11  N   UNL     1      26.641   1.366  52.894  1.00  0.00    -0.260 N 
ATOM     12  H   UNL     1      27.539   1.364  53.363  1.00  0.00    +0.192 HD
BRANCH  11  13
ATOM     13  C   UNL     1      25.611   0.642  53.514  1.00  0.00    +0.059 A 
ATOM     14  C   UNL     1      25.839  -0.249  54.563  1.00  0.00    +0.030 A 
ATOM     15  C   UNL     1      24.313   0.713  52.998  1.00  0.00    +0.040 A 
ATOM     16  C   UNL     1      24.790  -1.004  55.103  1.00  0.00    +0.031 A 
ATOM     17  C   UNL     1      23.245  -0.047  53.549  1.00  0.00    +0.029 A 
ATOM     18  C   UNL     1      23.495  -0.918  54.615  1.00  0.00    +0.074 A 
ATOM     19  C   UNL     1      21.910  -0.025  53.108  1.00  0.00    +0.081 A 
ATOM     20  N   UNL     1      22.546  -1.678  55.174  1.00  0.00    -0.236 NA
ATOM     21  N   UNL     1      20.942  -0.798  53.646  1.00  0.00    -0.236 NA
ATOM     22  C   UNL     1      21.315  -1.585  54.659  1.00  0.00    +0.223 A 
BRANCH  19  23
ATOM     23  C   UNL     1      21.435   0.845  52.020  1.00  0.00    +0.001 A 
ATOM     24  C   UNL     1      21.333   0.368  50.702  1.00  0.00    +0.010 A 
ATOM     25  C   UNL     1      21.086   2.181  52.275  1.00  0.00    +0.010 A 
ATOM     26  C   UNL     1      20.874   1.196  49.675  1.00  0.00    +0.001 A 
ATOM     27  C   UNL     1      20.627   3.009  51.248  1.00  0.00    +0.001 A 
ATOM     28  C   UNL     1      20.519   2.514  49.949  1.00  0.00    +0.000 A 
ENDBRANCH  19  23
ENDBRANCH  11  13
ENDBRANCH   2  11
TORSDOF 5
ENDMDL
MODEL 6
REMARK VINA RESULT:    -7.813      2.158      4.538
REMARK INTER + INTRA:         -11.527
REMARK INTER:                 -10.774
REMARK INTRA:                  -0.753
REMARK UNBOUND:                -1.430
REMARK SMILES Brc1cccc(C/N=N/Nc2ccc3ncnc(-c4ccccc4)c3c2)c1
REMARK SMILES IDX 8 1 9 2 7 3 6 4 2 5 3 6 27 7 4 8 5 9 1 10 10 11 11 13 12 14
REMARK SMILES IDX 26 15 13 16 25 17 14 18 18 19 15 20 17 21 16 22 19 23 20 24
REMARK SMILES IDX 24 25 21 26 23 27 22 28
REMARK H PARENT 10 12
ROOT
ATOM      1  N   UNL     1      26.241   3.480  49.724  1.00  0.00    -0.166 NA
ATOM      2  N   UNL     1      26.031   3.265  50.931  1.00  0.00    -0.074 NA
ENDROOT
BRANCH   1   3
ATOM      3  C   UNL     1      25.760   4.804  49.300  1.00  0.00    +0.204 C 
BRANCH   3   4
ATOM      4  C   UNL     1      26.841   5.632  48.648  1.00  0.00    -0.024 A 
ATOM      5  C   UNL     1      29.148   5.902  47.953  1.00  0.00    +0.018 A 
ATOM      6  C   UNL     1      28.862   7.169  47.451  1.00  0.00    +0.016 A 
ATOM      7  C   UNL     1      28.149   5.134  48.550  1.00  0.00    +0.021 A 
ATOM      8  C   UNL     1      27.566   7.674  47.547  1.00  0.00    +0.002 A 
ATOM      9  C   UNL     1      26.560   6.910  48.144  1.00  0.00    +0.006 A 
ATOM     10 Br   UNL     1      30.906   5.219  47.830  1.00  0.00    -0.051 Br
ENDBRANCH   3   4
ENDBRANCH   1   3
BRANCH   2  11
ATOM     11  N   UNL     1      26.536   2.044  51.179  1.00  0.00    -0.260 N 
ATOM     12  H   UNL     1      26.875   1.543  50.366  1.00  0.00    +0.192 HD
BRANCH  11  13
ATOM     13  C   UNL     1      25.986   1.265  52.209  1.00  0.00    +0.059 A 
ATOM     14  C   UNL     1      26.769   0.561  53.125  1.00  0.00    +0.030 A 
ATOM     15  C   UNL     1      24.601   1.080  52.266  1.00  0.00    +0.040 A 
ATOM     16  C   UNL     1      26.176  -0.261  54.091  1.00  0.00    +0.031 A 
ATOM     17  C   UNL     1      23.996   0.252  53.251  1.00  0.00    +0.029 A 
ATOM     18  C   UNL     1      24.802  -0.427  54.172  1.00  0.00    +0.074 A 
ATOM     19  C   UNL     1      22.616   0.022  53.395  1.00  0.00    +0.081 A 
ATOM     20  N   UNL     1      24.307  -1.238  55.115  1.00  0.00    -0.236 NA
ATOM     21  N   UNL     1      22.099  -0.806  54.328  1.00  0.00    -0.236 NA
ATOM     22  C   UNL     1      22.978  -1.391  55.145  1.00  0.00    +0.223 A 
BRANCH  19  23
ATOM     23  C   UNL     1      21.600   0.665  52.546  1.00  0.00    +0.001 A 
ATOM     24  C   UNL     1      21.336   0.194  51.249  1.00  0.00    +0.010 A 
ATOM     25  C   UNL     1      20.880   1.777  53.011  1.00  0.00    +0.010 A 
ATOM     26  C   UNL     1      20.365   0.803  50.450  1.00  0.00    +0.001 A 
ATOM     27  C   UNL     1      19.909   2.385  52.213  1.00  0.00    +0.001 A 
ATOM     28  C   UNL     1      19.650   1.896  50.934  1.00  0.00    +0.000 A 
ENDBRANCH  19  23
ENDBRANCH  11  13
ENDBRANCH   2  11
TORSDOF 5
ENDMDL
MODEL 7
REMARK VINA RESULT:    -7.745      2.272      4.015
REMARK INTER + INTRA:         -11.439
REMARK INTER:                  -9.683
REMARK INTRA:                  -1.757
REMARK UNBOUND:                -1.430
REMARK SMILES Brc1cccc(C/N=N/Nc2ccc3ncnc(-c4ccccc4)c3c2)c1
REMARK SMILES IDX 8 1 9 2 7 3 6 4 2 5 3 6 27 7 4 8 5 9 1 10 10 11 11 13 12 14
REMARK SMILES IDX 26 15 13 16 25 17 14 18 18 19 15 20 17 21 16 22 19 23 20 24
REMARK SMILES IDX 24 25 21 26 23 27 22 28
REMARK H PARENT 10 12
ROOT
ATOM      1  N   UNL     1      19.418   0.505  51.345  1.00  0.00    -0.166 NA
ATOM      2  N   UNL     1      19.751   0.877  52.485  1.00  0.00    -0.074 NA
ENDROOT
BRANCH   1   3
ATOM      3  C   UNL     1      19.089   1.636  50.463  1.00  0.00    +0.204 C 
BRANCH   3   4
ATOM      4  C   UNL     1      20.245   2.035  49.578  1.00  0.00    -0.024 A 
ATOM      5  C   UNL     1      21.521   3.753  48.437  1.00  0.00    +0.018 A 
ATOM      6  C   UNL     1      22.382   2.788  47.919  1.00  0.00    +0.016 A 
ATOM      7  C   UNL     1      20.457   3.386  49.260  1.00  0.00    +0.021 A 
ATOM      8  C   UNL     1      22.177   1.443  48.226  1.00  0.00    +0.002 A 
ATOM      9  C   UNL     1      21.113   1.068  49.050  1.00  0.00    +0.006 A 
ATOM     10 Br   UNL     1      21.793   5.575  48.016  1.00  0.00    -0.051 Br
ENDBRANCH   3   4
ENDBRANCH   1   3
BRANCH   2  11
ATOM     11  N   UNL     1      20.041  -0.246  53.166  1.00  0.00    -0.260 N 
ATOM     12  H   UNL     1      19.303  -0.588  53.770  1.00  0.00    +0.192 HD
BRANCH  11  13
ATOM     13  C   UNL     1      21.357  -0.471  53.598  1.00  0.00    +0.059 A 
ATOM     14  C   UNL     1      21.690  -1.468  54.515  1.00  0.00    +0.030 A 
ATOM     15  C   UNL     1      22.372   0.402  53.194  1.00  0.00    +0.040 A 
ATOM     16  C   UNL     1      23.007  -1.610  54.972  1.00  0.00    +0.031 A 
ATOM     17  C   UNL     1      23.711   0.255  53.650  1.00  0.00    +0.029 A 
ATOM     18  C   UNL     1      24.025  -0.766  54.554  1.00  0.00    +0.074 A 
ATOM     19  C   UNL     1      24.796   1.071  53.284  1.00  0.00    +0.081 A 
ATOM     20  N   UNL     1      25.257  -0.954  55.042  1.00  0.00    -0.236 NA
ATOM     21  N   UNL     1      26.042   0.908  53.780  1.00  0.00    -0.236 NA
ATOM     22  C   UNL     1      26.206  -0.104  54.634  1.00  0.00    +0.223 A 
BRANCH  19  23
ATOM     23  C   UNL     1      24.682   2.180  52.323  1.00  0.00    +0.001 A 
ATOM     24  C   UNL     1      25.426   2.184  51.130  1.00  0.00    +0.010 A 
ATOM     25  C   UNL     1      23.835   3.268  52.585  1.00  0.00    +0.010 A 
ATOM     26  C   UNL     1      25.308   3.235  50.217  1.00  0.00    +0.001 A 
ATOM     27  C   UNL     1      23.717   4.318  51.671  1.00  0.00    +0.001 A 
ATOM     28  C   UNL     1      24.451   4.299  50.487  1.00  0.00    +0.000 A 
ENDBRANCH  19  23
ENDBRANCH  11  13
ENDBRANCH   2  11
TORSDOF 5
ENDMDL
MODEL 8
REMARK VINA RESULT:    -7.731      1.864      4.325
REMARK INTER + INTRA:         -11.421
REMARK INTER:                 -10.654
REMARK INTRA:                  -0.767
REMARK UNBOUND:                -1.430
REMARK SMILES Brc1cccc(C/N=N/Nc2ccc3ncnc(-c4ccccc4)c3c2)c1
REMARK SMILES IDX 8 1 9 2 7 3 6 4 2 5 3 6 27 7 4 8 5 9 1 10 10 11 11 13 12 14
REMARK SMILES IDX 26 15 13 16 25 17 14 18 18 19 15 20 17 21 16 22 19 23 20 24
REMARK SMILES IDX 24 25 21 26 23 27 22 28
REMARK H PARENT 10 12
ROOT
ATOM      1  N   UNL     1      22.734   5.353  50.027  1.00  0.00    -0.166 NA
ATOM      2  N   UNL     1      22.701   5.843  51.170  1.00  0.00    -0.074 NA
ENDROOT
BRANCH   1   3
ATOM      3  C   UNL     1      23.472   6.200  49.077  1.00  0.00    +0.204 C 
BRANCH   3   4
ATOM      4  C   UNL     1      24.922   5.799  48.949  1.00  0.00    -0.024 A 
ATOM      5  C   UNL     1      27.195   6.323  48.287  1.00  0.00    +0.018 A 
ATOM      6  C   UNL     1      27.618   5.058  48.691  1.00  0.00    +0.016 A 
ATOM      7  C   UNL     1      25.857   6.696  48.411  1.00  0.00    +0.021 A 
ATOM      8  C   UNL     1      26.695   4.159  49.222  1.00  0.00    +0.002 A 
ATOM      9  C   UNL     1      25.353   4.526  49.350  1.00  0.00    +0.006 A 
ATOM     10 Br   UNL     1      28.444   7.541  47.560  1.00  0.00    -0.051 Br
ENDBRANCH   3   4
ENDBRANCH   1   3
BRANCH   2  11
ATOM     11  N   UNL     1      22.023   4.962  51.927  1.00  0.00    -0.260 N 
ATOM     12  H   UNL     1      21.331   5.367  52.546  1.00  0.00    +0.192 HD
BRANCH  11  13
ATOM     13  C   UNL     1      22.669   3.803  52.383  1.00  0.00    +0.059 A 
ATOM     14  C   UNL     1      24.020   3.777  52.727  1.00  0.00    +0.030 A 
ATOM     15  C   UNL     1      21.976   2.588  52.392  1.00  0.00    +0.040 A 
ATOM     16  C   UNL     1      24.639   2.579  53.109  1.00  0.00    +0.031 A 
ATOM     17  C   UNL     1      22.599   1.373  52.788  1.00  0.00    +0.029 A 
ATOM     18  C   UNL     1      23.951   1.376  53.148  1.00  0.00    +0.074 A 
ATOM     19  C   UNL     1      21.978   0.113  52.845  1.00  0.00    +0.081 A 
ATOM     20  N   UNL     1      24.611   0.270  53.513  1.00  0.00    -0.236 NA
ATOM     21  N   UNL     1      22.631  -1.017  53.192  1.00  0.00    -0.236 NA
ATOM     22  C   UNL     1      23.919  -0.875  53.513  1.00  0.00    +0.223 A 
BRANCH  19  23
ATOM     23  C   UNL     1      20.555  -0.098  52.535  1.00  0.00    +0.001 A 
ATOM     24  C   UNL     1      19.700  -0.735  53.452  1.00  0.00    +0.010 A 
ATOM     25  C   UNL     1      20.021   0.320  51.306  1.00  0.00    +0.010 A 
ATOM     26  C   UNL     1      18.349  -0.926  53.156  1.00  0.00    +0.001 A 
ATOM     27  C   UNL     1      18.669   0.130  51.011  1.00  0.00    +0.001 A 
ATOM     28  C   UNL     1      17.834  -0.490  51.938  1.00  0.00    +0.000 A 
ENDBRANCH  19  23
ENDBRANCH  11  13
ENDBRANCH   2  11
TORSDOF 5
ENDMDL
MODEL 9
REMARK VINA RESULT:    -7.725      3.645      6.750
REMARK INTER + INTRA:         -11.413
REMARK INTER:                 -10.794
REMARK INTRA:                  -0.619
REMARK UNBOUND:                -1.430
REMARK SMILES Brc1cccc(C/N=N/Nc2ccc3ncnc(-c4ccccc4)c3c2)c1
REMARK SMILES IDX 8 1 9 2 7 3 6 4 2 5 3 6 27 7 4 8 5 9 1 10 10 11 11 13 12 14
REMARK SMILES IDX 26 15 13 16 25 17 14 18 18 19 15 20 17 21 16 22 19 23 20 24
REMARK SMILES IDX 24 25 21 26 23 27 22 28
REMARK H PARENT 10 12
ROOT
ATOM      1  N   UNL     1      20.488  -0.883  53.476  1.00  0.00    -0.166 NA
ATOM      2  N   UNL     1      20.979  -0.050  54.259  1.00  0.00    -0.074 NA
ENDROOT
BRANCH   1   3
ATOM      3  C   UNL     1      19.021  -0.943  53.573  1.00  0.00    +0.204 C 
BRANCH   3   4
ATOM      4  C   UNL     1      18.339  -0.528  52.292  1.00  0.00    -0.024 A 
ATOM      5  C   UNL     1      16.391  -0.551  50.848  1.00  0.00    +0.018 A 
ATOM      6  C   UNL     1      17.065   0.223  49.905  1.00  0.00    +0.016 A 
ATOM      7  C   UNL     1      17.018  -0.928  52.034  1.00  0.00    +0.021 A 
ATOM      8  C   UNL     1      18.378   0.621  50.150  1.00  0.00    +0.002 A 
ATOM      9  C   UNL     1      19.013   0.247  51.337  1.00  0.00    +0.006 A 
ATOM     10 Br   UNL     1      14.613  -1.098  50.513  1.00  0.00    -0.051 Br
ENDBRANCH   3   4
ENDBRANCH   1   3
BRANCH   2  11
ATOM     11  N   UNL     1      22.307  -0.088  54.047  1.00  0.00    -0.260 N 
ATOM     12  H   UNL     1      22.862  -0.398  54.836  1.00  0.00    +0.192 HD
BRANCH  11  13
ATOM     13  C   UNL     1      22.899   0.863  53.202  1.00  0.00    +0.059 A 
ATOM     14  C   UNL     1      22.155   1.756  52.431  1.00  0.00    +0.030 A 
ATOM     15  C   UNL     1      24.287   0.856  53.024  1.00  0.00    +0.040 A 
ATOM     16  C   UNL     1      22.788   2.640  51.547  1.00  0.00    +0.031 A 
ATOM     17  C   UNL     1      24.932   1.758  52.134  1.00  0.00    +0.029 A 
ATOM     18  C   UNL     1      24.165   2.658  51.386  1.00  0.00    +0.074 A 
ATOM     19  C   UNL     1      26.318   1.834  51.906  1.00  0.00    +0.081 A 
ATOM     20  N   UNL     1      24.699   3.523  50.516  1.00  0.00    -0.236 NA
ATOM     21  N   UNL     1      26.873   2.687  51.019  1.00  0.00    -0.236 NA
ATOM     22  C   UNL     1      26.029   3.493  50.371  1.00  0.00    +0.223 A 
BRANCH  19  23
ATOM     23  C   UNL     1      27.298   0.996  52.615  1.00  0.00    +0.001 A 
ATOM     24  C   UNL     1      28.295   1.571  53.421  1.00  0.00    +0.010 A 
ATOM     25  C   UNL     1      27.267  -0.402  52.488  1.00  0.00    +0.010 A 
ATOM     26  C   UNL     1      29.218   0.770  54.098  1.00  0.00    +0.001 A 
ATOM     27  C   UNL     1      28.189  -1.202  53.165  1.00  0.00    +0.001 A 
ATOM     28  C   UNL     1      29.163  -0.615  53.972  1.00  0.00    +0.000 A 
ENDBRANCH  19  23
ENDBRANCH  11  13
ENDBRANCH   2  11
TORSDOF 5
ENDMDL
