REMARK SMILES CN(C(=O)c1cccc(Cl)c1)c1ccc(-c2cc(O)ccc2[N+](=O)[O-])[nH]1
REMARK SMILES IDX 12 1 13 2 14 3 15 4 26 5 2 7 1 8 3 9 4 10 5 11 6 12 11 13
REMARK SMILES IDX 7 14 9 15 8 16 10 17 16 18 17 19 22 20 18 21 21 22 20 23
REMARK SMILES IDX 23 24 24 25 25 26 19 27
REMARK H PARENT 26 6 19 28
ROOT
ATOM      1  C   UNL     1      -0.338  -1.213   0.539  1.00  0.00    +0.113 A 
ATOM      2  C   UNL     1       0.127  -2.332   1.201  1.00  0.00    +0.047 A 
ATOM      3  C   UNL     1       1.469  -2.085   1.588  1.00  0.00    +0.031 A 
ATOM      4  C   UNL     1       1.814  -0.819   1.150  1.00  0.00    +0.054 A 
ATOM      5  N   UNL     1       0.702  -0.312   0.519  1.00  0.00    -0.341 N 
ATOM      6  H   UNL     1       0.633   0.593   0.064  1.00  0.00    +0.168 HD
ENDROOT
BRANCH   1   7
ATOM      7  N   UNL     1      -1.593  -0.949  -0.034  1.00  0.00    -0.297 N 
ATOM      8  C   UNL     1      -2.618  -1.997  -0.051  1.00  0.00    +0.155 C 
BRANCH   7   9
ATOM      9  C   UNL     1      -1.817   0.334  -0.572  1.00  0.00    +0.259 C 
ATOM     10  O   UNL     1      -0.962   1.212  -0.713  1.00  0.00    -0.269 OA
BRANCH   9  11
ATOM     11  C   UNL     1      -3.187   0.698  -0.991  1.00  0.00    +0.041 A 
ATOM     12  C   UNL     1      -3.417   1.041  -2.328  1.00  0.00    +0.014 A 
ATOM     13  C   UNL     1      -4.218   0.762  -0.049  1.00  0.00    +0.034 A 
ATOM     14  C   UNL     1      -4.698   1.412  -2.735  1.00  0.00    +0.002 A 
ATOM     15  C   UNL     1      -5.493   1.134  -0.468  1.00  0.00    +0.041 A 
ATOM     16  C   UNL     1      -5.739   1.454  -1.804  1.00  0.00    +0.020 A 
ATOM     17 Cl   UNL     1      -6.777   1.202   0.675  1.00  0.00    -0.084 Cl
ENDBRANCH   9  11
ENDBRANCH   7   9
ENDBRANCH   1   7
BRANCH   4  18
ATOM     18  C   UNL     1       3.063  -0.064   1.272  1.00  0.00    +0.079 A 
ATOM     19  C   UNL     1       3.016   1.253   1.761  1.00  0.00    +0.063 A 
ATOM     20  C   UNL     1       4.325  -0.585   0.943  1.00  0.00    +0.278 A 
ATOM     21  C   UNL     1       4.190   1.993   1.912  1.00  0.00    +0.116 A 
ATOM     22  C   UNL     1       5.507   0.154   1.096  1.00  0.00    +0.090 A 
ATOM     23  C   UNL     1       5.431   1.454   1.586  1.00  0.00    +0.053 A 
BRANCH  20  24
ATOM     24  N   UNL     1       4.452  -1.915   0.388  1.00  0.00    +0.063 N 
ATOM     25  O   UNL     1       4.862  -2.802   1.150  1.00  0.00    -0.258 OA
ATOM     26  O   UNL     1       4.189  -2.055  -0.813  1.00  0.00    -0.258 OA
ENDBRANCH  20  24
BRANCH  21  27
ATOM     27  O   UNL     1       4.166   3.270   2.388  1.00  0.00    -0.508 OA
ATOM     28  H   UNL     1       3.246   3.527   2.567  1.00  0.00    +0.293 HD
ENDBRANCH  21  27
ENDBRANCH   4  18
TORSDOF 6
