REMARK SMILES O=C(O)c1cc(O)c(O)c(N2CCN(c3cccc(Cl)c3)CC2)c1
REMARK SMILES IDX 4 1 5 2 6 3 8 4 10 5 24 6 2 7 1 8 3 9 7 11 11 13 12 14 23 15
REMARK SMILES IDX 13 16 22 17 14 18 15 19 16 20 21 21 17 22 19 23 18 24 20 25
REMARK SMILES IDX 9 26
REMARK H PARENT 3 10 7 12 9 27
ROOT
ATOM      1  C   UNL     1      -4.513  -0.068   0.171  1.00  0.00    +0.065 A 
ATOM      2  C   UNL     1      -4.573  -1.217   0.967  1.00  0.00    +0.066 A 
ATOM      3  C   UNL     1      -3.402  -1.914   1.226  1.00  0.00    +0.160 A 
ATOM      4  C   UNL     1      -2.178  -1.488   0.700  1.00  0.00    +0.181 A 
ATOM      5  C   UNL     1      -2.094  -0.347  -0.114  1.00  0.00    +0.084 A 
ATOM      6  C   UNL     1      -3.285   0.360  -0.358  1.00  0.00    +0.045 A 
ENDROOT
BRANCH   1   7
ATOM      7  C   UNL     1      -5.775   0.663  -0.087  1.00  0.00    +0.335 C 
ATOM      8  O   UNL     1      -6.875   0.339   0.323  1.00  0.00    -0.246 OA
BRANCH   7   9
ATOM      9  O   UNL     1      -5.604   1.765  -0.836  1.00  0.00    -0.478 OA
ATOM     10  H   UNL     1      -6.506   2.138  -0.927  1.00  0.00    +0.297 HD
ENDBRANCH   7   9
ENDBRANCH   1   7
BRANCH   3  11
ATOM     11  O   UNL     1      -3.394  -3.037   2.013  1.00  0.00    -0.504 OA
ATOM     12  H   UNL     1      -4.308  -3.219   2.298  1.00  0.00    +0.293 HD
ENDBRANCH   3  11
BRANCH   5  13
ATOM     13  N   UNL     1      -0.911   0.167  -0.679  1.00  0.00    -0.365 N 
ATOM     14  C   UNL     1       0.034  -0.816  -1.265  1.00  0.00    +0.138 C 
ATOM     15  C   UNL     1      -0.274   1.160   0.218  1.00  0.00    +0.138 C 
ATOM     16  C   UNL     1       1.387  -0.897  -0.521  1.00  0.00    +0.138 C 
ATOM     17  C   UNL     1       1.121   1.584  -0.298  1.00  0.00    +0.138 C 
ATOM     18  N   UNL     1       2.034   0.429  -0.430  1.00  0.00    -0.368 N 
BRANCH  18  19
ATOM     19  C   UNL     1       3.396   0.571  -0.222  1.00  0.00    +0.038 A 
ATOM     20  C   UNL     1       4.047   1.798  -0.447  1.00  0.00    +0.026 A 
ATOM     21  C   UNL     1       4.203  -0.496   0.204  1.00  0.00    +0.046 A 
ATOM     22  C   UNL     1       5.424   1.959  -0.251  1.00  0.00    +0.004 A 
ATOM     23  C   UNL     1       5.579  -0.339   0.404  1.00  0.00    +0.043 A 
ATOM     24  C   UNL     1       6.194   0.886   0.179  1.00  0.00    +0.020 A 
ATOM     25 Cl   UNL     1       6.521  -1.679   0.938  1.00  0.00    -0.084 Cl
ENDBRANCH  18  19
ENDBRANCH   5  13
BRANCH   4  26
ATOM     26  O   UNL     1      -1.060  -2.212   1.034  1.00  0.00    -0.503 OA
ATOM     27  H   UNL     1      -1.395  -2.924   1.614  1.00  0.00    +0.293 HD
ENDBRANCH   4  26
TORSDOF 6
