REMARK SMILES Cc1cc(C)c(N(C(=O)c2ccccn2)c2ccccn2)[nH]1
REMARK SMILES IDX 7 1 6 2 2 3 3 4 22 5 4 6 1 7 5 9 8 10 9 11 10 12 11 13 15 14
REMARK SMILES IDX 12 15 14 16 13 17 16 18 17 19 21 20 18 21 20 22 19 23
REMARK H PARENT 22 8
ROOT
ATOM      1  N   UNL     1       0.206   0.908  -0.041  1.00  0.00    -0.244 N 
ENDROOT
BRANCH   1   2
ATOM      2  C   UNL     1      -0.730  -0.112  -0.247  1.00  0.00    +0.122 A 
ATOM      3  C   UNL     1      -2.432  -1.486   0.325  1.00  0.00    +0.014 A 
ATOM      4  C   UNL     1      -2.008  -1.846  -0.935  1.00  0.00    +0.028 A 
ATOM      5  N   UNL     1      -1.643  -0.441   0.731  1.00  0.00    -0.345 N 
ATOM      6  C   UNL     1      -0.927  -0.991  -1.306  1.00  0.00    -0.008 A 
ATOM      7  C   UNL     1      -3.498  -2.042   1.191  1.00  0.00    +0.064 C 
ATOM      8  H   UNL     1      -1.674  -0.006   1.643  1.00  0.00    +0.168 HD
ATOM      9  C   UNL     1      -0.220  -1.043  -2.613  1.00  0.00    +0.048 C 
ENDBRANCH   1   2
BRANCH   1  10
ATOM     10  C   UNL     1       1.515   0.792  -0.525  1.00  0.00    +0.283 C 
ATOM     11  O   UNL     1       2.135   1.705  -1.080  1.00  0.00    -0.266 OA
BRANCH  10  12
ATOM     12  C   UNL     1       2.226  -0.519  -0.339  1.00  0.00    +0.129 A 
ATOM     13  C   UNL     1       3.317  -0.813  -1.153  1.00  0.00    +0.034 A 
ATOM     14  N   UNL     1       1.802  -1.344   0.657  1.00  0.00    -0.251 NA
ATOM     15  C   UNL     1       3.986  -2.019  -0.961  1.00  0.00    +0.004 A 
ATOM     16  C   UNL     1       2.470  -2.506   0.814  1.00  0.00    +0.112 A 
ATOM     17  C   UNL     1       3.554  -2.884   0.037  1.00  0.00    +0.020 A 
ENDBRANCH  10  12
ENDBRANCH   1  10
BRANCH   1  18
ATOM     18  C   UNL     1      -0.212   2.151   0.525  1.00  0.00    +0.141 A 
ATOM     19  C   UNL     1      -1.536   2.591   0.428  1.00  0.00    +0.048 A 
ATOM     20  N   UNL     1       0.717   2.895   1.173  1.00  0.00    -0.238 NA
ATOM     21  C   UNL     1      -1.907   3.806   1.006  1.00  0.00    +0.005 A 
ATOM     22  C   UNL     1       0.338   4.071   1.718  1.00  0.00    +0.113 A 
ATOM     23  C   UNL     1      -0.953   4.562   1.667  1.00  0.00    +0.020 A 
ENDBRANCH   1  18
TORSDOF 4
