MODEL 1
REMARK VINA RESULT:    -8.797      0.000      0.000
REMARK INTER + INTRA:         -11.400
REMARK INTER:                 -10.597
REMARK INTRA:                  -0.804
REMARK UNBOUND:                -0.804
REMARK SMILES Cc1cc(-c2ccc(O)c([N+](=O)[O-])c2)[nH]c1-c1ccc(F)c(Cl)c1
REMARK SMILES IDX 5 1 6 2 7 3 8 4 10 5 14 6 4 7 2 8 3 9 16 10 15 11 1 12 17 14
REMARK SMILES IDX 18 15 24 16 19 17 22 18 20 19 23 20 21 21 11 22 12 23 13 24
REMARK SMILES IDX 9 25
REMARK H PARENT 15 13 9 26
ROOT
ATOM      1  C   UNL     1      24.353   0.789  52.813  1.00  0.00    +0.005 A 
ATOM      2  C   UNL     1      23.295  -0.013  53.272  1.00  0.00    +0.014 A 
ATOM      3  C   UNL     1      23.457  -0.869  54.371  1.00  0.00    +0.054 A 
ATOM      4  C   UNL     1      24.683  -0.930  55.027  1.00  0.00    +0.194 A 
ATOM      5  C   UNL     1      25.731  -0.131  54.575  1.00  0.00    +0.311 A 
ATOM      6  C   UNL     1      25.585   0.720  53.473  1.00  0.00    +0.100 A 
ENDROOT
BRANCH   1   7
ATOM      7  C   UNL     1      24.186   1.675  51.661  1.00  0.00    +0.046 A 
ATOM      8  C   UNL     1      23.479   2.788  49.798  1.00  0.00    -0.025 A 
ATOM      9  C   UNL     1      23.152   1.780  50.749  1.00  0.00    +0.032 A 
ATOM     10  C   UNL     1      24.729   3.280  50.146  1.00  0.00    +0.049 A 
ATOM     11  N   UNL     1      25.134   2.593  51.269  1.00  0.00    -0.354 N 
ATOM     12  C   UNL     1      22.618   3.218  48.663  1.00  0.00    +0.047 C 
ATOM     13  H   UNL     1      26.031   2.717  51.716  1.00  0.00    +0.167 HD
BRANCH  10  14
ATOM     14  C   UNL     1      25.569   4.300  49.521  1.00  0.00    -0.000 A 
ATOM     15  C   UNL     1      26.912   4.027  49.222  1.00  0.00    +0.013 A 
ATOM     16  C   UNL     1      25.038   5.560  49.213  1.00  0.00    +0.034 A 
ATOM     17  C   UNL     1      27.714   5.002  48.625  1.00  0.00    +0.041 A 
ATOM     18  C   UNL     1      25.842   6.532  48.615  1.00  0.00    +0.077 A 
ATOM     19  C   UNL     1      27.174   6.248  48.324  1.00  0.00    +0.141 A 
ATOM     20 Cl   UNL     1      25.171   8.073  48.241  1.00  0.00    -0.081 Cl
ATOM     21  F   UNL     1      27.963   7.168  47.750  1.00  0.00    -0.205 F 
ENDBRANCH  10  14
ENDBRANCH   1   7
BRANCH   5  22
ATOM     22  N   UNL     1      27.012  -0.161  55.245  1.00  0.00    +0.066 N 
ATOM     23  O   UNL     1      27.016   0.104  56.456  1.00  0.00    -0.258 OA
ATOM     24  O   UNL     1      27.998  -0.506  54.579  1.00  0.00    -0.258 OA
ENDBRANCH   5  22
BRANCH   4  25
ATOM     25  O   UNL     1      24.852  -1.784  56.077  1.00  0.00    -0.502 OA
ATOM     26  H   UNL     1      25.131  -2.658  55.756  1.00  0.00    +0.293 HD
ENDBRANCH   4  25
TORSDOF 4
ENDMDL
MODEL 2
REMARK VINA RESULT:    -8.793      1.046      1.438
REMARK INTER + INTRA:         -11.396
REMARK INTER:                 -10.510
REMARK INTRA:                  -0.886
REMARK UNBOUND:                -0.804
REMARK SMILES Cc1cc(-c2ccc(O)c([N+](=O)[O-])c2)[nH]c1-c1ccc(F)c(Cl)c1
REMARK SMILES IDX 5 1 6 2 7 3 8 4 10 5 14 6 4 7 2 8 3 9 16 10 15 11 1 12 17 14
REMARK SMILES IDX 18 15 24 16 19 17 22 18 20 19 23 20 21 21 11 22 12 23 13 24
REMARK SMILES IDX 9 25
REMARK H PARENT 15 13 9 26
ROOT
ATOM      1  C   UNL     1      24.346   0.849  52.701  1.00  0.00    +0.005 A 
ATOM      2  C   UNL     1      23.301   0.047  53.190  1.00  0.00    +0.014 A 
ATOM      3  C   UNL     1      23.490  -0.794  54.297  1.00  0.00    +0.054 A 
ATOM      4  C   UNL     1      24.729  -0.840  54.930  1.00  0.00    +0.194 A 
ATOM      5  C   UNL     1      25.762  -0.040  54.448  1.00  0.00    +0.311 A 
ATOM      6  C   UNL     1      25.590   0.796  53.338  1.00  0.00    +0.100 A 
ENDROOT
BRANCH   1   7
ATOM      7  C   UNL     1      24.151   1.719  51.541  1.00  0.00    +0.046 A 
ATOM      8  C   UNL     1      23.428   2.770  49.648  1.00  0.00    -0.025 A 
ATOM      9  C   UNL     1      23.150   1.736  50.587  1.00  0.00    +0.032 A 
ATOM     10  C   UNL     1      24.617   3.366  50.046  1.00  0.00    +0.049 A 
ATOM     11  N   UNL     1      25.033   2.715  51.186  1.00  0.00    -0.354 N 
ATOM     12  C   UNL     1      22.581   3.127  48.478  1.00  0.00    +0.047 C 
ATOM     13  H   UNL     1      25.897   2.915  51.669  1.00  0.00    +0.167 HD
BRANCH  10  14
ATOM     14  C   UNL     1      25.391   4.455  49.454  1.00  0.00    -0.000 A 
ATOM     15  C   UNL     1      24.788   5.695  49.196  1.00  0.00    +0.013 A 
ATOM     16  C   UNL     1      26.744   4.271  49.141  1.00  0.00    +0.034 A 
ATOM     17  C   UNL     1      25.528   6.736  48.630  1.00  0.00    +0.041 A 
ATOM     18  C   UNL     1      27.482   5.313  48.576  1.00  0.00    +0.077 A 
ATOM     19  C   UNL     1      26.870   6.539  48.324  1.00  0.00    +0.141 A 
ATOM     20 Cl   UNL     1      29.144   5.068  48.201  1.00  0.00    -0.081 Cl
ATOM     21  F   UNL     1      27.561   7.553  47.782  1.00  0.00    -0.205 F 
ENDBRANCH  10  14
ENDBRANCH   1   7
BRANCH   5  22
ATOM     22  N   UNL     1      27.056  -0.053  55.094  1.00  0.00    +0.066 N 
ATOM     23  O   UNL     1      27.094   0.310  56.279  1.00  0.00    -0.258 OA
ATOM     24  O   UNL     1      28.018  -0.481  54.440  1.00  0.00    -0.258 OA
ENDBRANCH   5  22
BRANCH   4  25
ATOM     25  O   UNL     1      24.923  -1.678  55.988  1.00  0.00    -0.502 OA
ATOM     26  H   UNL     1      25.858  -1.937  56.042  1.00  0.00    +0.293 HD
ENDBRANCH   4  25
TORSDOF 4
ENDMDL
MODEL 3
REMARK VINA RESULT:    -8.552      1.829      2.692
REMARK INTER + INTRA:         -11.106
REMARK INTER:                 -10.278
REMARK INTRA:                  -0.827
REMARK UNBOUND:                -0.804
REMARK SMILES Cc1cc(-c2ccc(O)c([N+](=O)[O-])c2)[nH]c1-c1ccc(F)c(Cl)c1
REMARK SMILES IDX 5 1 6 2 7 3 8 4 10 5 14 6 4 7 2 8 3 9 16 10 15 11 1 12 17 14
REMARK SMILES IDX 18 15 24 16 19 17 22 18 20 19 23 20 21 21 11 22 12 23 13 24
REMARK SMILES IDX 9 25
REMARK H PARENT 15 13 9 26
ROOT
ATOM      1  C   UNL     1      24.277   0.900  52.464  1.00  0.00    +0.005 A 
ATOM      2  C   UNL     1      25.546   0.513  52.927  1.00  0.00    +0.014 A 
ATOM      3  C   UNL     1      25.686  -0.346  54.027  1.00  0.00    +0.054 A 
ATOM      4  C   UNL     1      24.554  -0.831  54.676  1.00  0.00    +0.194 A 
ATOM      5  C   UNL     1      23.296  -0.451  54.213  1.00  0.00    +0.311 A 
ATOM      6  C   UNL     1      23.143   0.413  53.123  1.00  0.00    +0.100 A 
ENDROOT
BRANCH   1   7
ATOM      7  C   UNL     1      24.132   1.804  51.322  1.00  0.00    +0.046 A 
ATOM      8  C   UNL     1      23.481   2.921  49.441  1.00  0.00    -0.025 A 
ATOM      9  C   UNL     1      23.154   1.872  50.348  1.00  0.00    +0.032 A 
ATOM     10  C   UNL     1      24.676   3.474  49.880  1.00  0.00    +0.049 A 
ATOM     11  N   UNL     1      25.048   2.783  51.012  1.00  0.00    -0.354 N 
ATOM     12  C   UNL     1      22.671   3.329  48.262  1.00  0.00    +0.047 C 
ATOM     13  H   UNL     1      25.906   2.948  51.519  1.00  0.00    +0.167 HD
BRANCH  10  14
ATOM     14  C   UNL     1      25.492   4.555  49.333  1.00  0.00    -0.000 A 
ATOM     15  C   UNL     1      24.928   5.817  49.092  1.00  0.00    +0.013 A 
ATOM     16  C   UNL     1      26.847   4.342  49.046  1.00  0.00    +0.034 A 
ATOM     17  C   UNL     1      25.708   6.851  48.568  1.00  0.00    +0.041 A 
ATOM     18  C   UNL     1      27.625   5.377  48.524  1.00  0.00    +0.077 A 
ATOM     19  C   UNL     1      27.052   6.625  48.289  1.00  0.00    +0.141 A 
ATOM     20 Cl   UNL     1      29.288   5.097  48.181  1.00  0.00    -0.081 Cl
ATOM     21  F   UNL     1      27.782   7.633  47.788  1.00  0.00    -0.205 F 
ENDBRANCH  10  14
ENDBRANCH   1   7
BRANCH   5  22
ATOM     22  N   UNL     1      22.101  -0.951  54.857  1.00  0.00    +0.066 N 
ATOM     23  O   UNL     1      21.200  -0.129  55.079  1.00  0.00    -0.258 OA
ATOM     24  O   UNL     1      22.039  -2.167  55.083  1.00  0.00    -0.258 OA
ENDBRANCH   5  22
BRANCH   4  25
ATOM     25  O   UNL     1      24.688  -1.642  55.764  1.00  0.00    -0.502 OA
ATOM     26  H   UNL     1      23.904  -1.569  56.334  1.00  0.00    +0.293 HD
ENDBRANCH   4  25
TORSDOF 4
ENDMDL
MODEL 4
REMARK VINA RESULT:    -8.551      5.172      6.803
REMARK INTER + INTRA:         -11.105
REMARK INTER:                 -10.313
REMARK INTRA:                  -0.792
REMARK UNBOUND:                -0.804
REMARK SMILES Cc1cc(-c2ccc(O)c([N+](=O)[O-])c2)[nH]c1-c1ccc(F)c(Cl)c1
REMARK SMILES IDX 5 1 6 2 7 3 8 4 10 5 14 6 4 7 2 8 3 9 16 10 15 11 1 12 17 14
REMARK SMILES IDX 18 15 24 16 19 17 22 18 20 19 23 20 21 21 11 22 12 23 13 24
REMARK SMILES IDX 9 25
REMARK H PARENT 15 13 9 26
ROOT
ATOM      1  C   UNL     1      21.850   0.053  52.864  1.00  0.00    +0.005 A 
ATOM      2  C   UNL     1      21.701  -0.886  53.898  1.00  0.00    +0.014 A 
ATOM      3  C   UNL     1      20.442  -1.404  54.232  1.00  0.00    +0.054 A 
ATOM      4  C   UNL     1      19.313  -0.989  53.531  1.00  0.00    +0.194 A 
ATOM      5  C   UNL     1      19.462  -0.062  52.502  1.00  0.00    +0.311 A 
ATOM      6  C   UNL     1      20.712   0.471  52.166  1.00  0.00    +0.100 A 
ENDROOT
BRANCH   1   7
ATOM      7  C   UNL     1      23.163   0.600  52.522  1.00  0.00    +0.046 A 
ATOM      8  C   UNL     1      24.932   1.765  51.671  1.00  0.00    -0.025 A 
ATOM      9  C   UNL     1      23.514   1.636  51.676  1.00  0.00    +0.032 A 
ATOM     10  C   UNL     1      25.428   0.784  52.519  1.00  0.00    +0.049 A 
ATOM     11  N   UNL     1      24.344   0.096  53.017  1.00  0.00    -0.354 N 
ATOM     12  C   UNL     1      25.706   2.775  50.901  1.00  0.00    +0.047 C 
ATOM     13  H   UNL     1      24.415  -0.704  53.630  1.00  0.00    +0.167 HD
BRANCH  10  14
ATOM     14  C   UNL     1      26.799   0.430  52.880  1.00  0.00    -0.000 A 
ATOM     15  C   UNL     1      27.712   1.425  53.260  1.00  0.00    +0.013 A 
ATOM     16  C   UNL     1      27.214  -0.908  52.852  1.00  0.00    +0.034 A 
ATOM     17  C   UNL     1      29.023   1.087  53.605  1.00  0.00    +0.041 A 
ATOM     18  C   UNL     1      28.524  -1.243  53.199  1.00  0.00    +0.077 A 
ATOM     19  C   UNL     1      29.420  -0.245  53.573  1.00  0.00    +0.141 A 
ATOM     20 Cl   UNL     1      29.014  -2.893  53.161  1.00  0.00    -0.081 Cl
ATOM     21  F   UNL     1      30.684  -0.546  53.909  1.00  0.00    -0.205 F 
ENDBRANCH  10  14
ENDBRANCH   1   7
BRANCH   5  22
ATOM     22  N   UNL     1      18.310   0.378  51.745  1.00  0.00    +0.066 N 
ATOM     23  O   UNL     1      18.131   1.601  51.659  1.00  0.00    -0.258 OA
ATOM     24  O   UNL     1      17.624  -0.492  51.190  1.00  0.00    -0.258 OA
ENDBRANCH   5  22
BRANCH   4  25
ATOM     25  O   UNL     1      18.083  -1.468  53.874  1.00  0.00    -0.502 OA
ATOM     26  H   UNL     1      18.151  -2.401  54.141  1.00  0.00    +0.293 HD
ENDBRANCH   4  25
TORSDOF 4
ENDMDL
MODEL 5
REMARK VINA RESULT:    -8.368      4.268      6.345
REMARK INTER + INTRA:         -10.884
REMARK INTER:                 -10.370
REMARK INTRA:                  -0.514
REMARK UNBOUND:                -0.804
REMARK SMILES Cc1cc(-c2ccc(O)c([N+](=O)[O-])c2)[nH]c1-c1ccc(F)c(Cl)c1
REMARK SMILES IDX 5 1 6 2 7 3 8 4 10 5 14 6 4 7 2 8 3 9 16 10 15 11 1 12 17 14
REMARK SMILES IDX 18 15 24 16 19 17 22 18 20 19 23 20 21 21 11 22 12 23 13 24
REMARK SMILES IDX 9 25
REMARK H PARENT 15 13 9 26
ROOT
ATOM      1  C   UNL     1      25.181   0.710  53.143  1.00  0.00    +0.005 A 
ATOM      2  C   UNL     1      25.591   1.662  52.195  1.00  0.00    +0.014 A 
ATOM      3  C   UNL     1      26.915   2.123  52.155  1.00  0.00    +0.054 A 
ATOM      4  C   UNL     1      27.848   1.631  53.064  1.00  0.00    +0.194 A 
ATOM      5  C   UNL     1      27.442   0.682  54.000  1.00  0.00    +0.311 A 
ATOM      6  C   UNL     1      26.121   0.223  54.057  1.00  0.00    +0.100 A 
ENDROOT
BRANCH   1   7
ATOM      7  C   UNL     1      23.797   0.237  53.191  1.00  0.00    +0.046 A 
ATOM      8  C   UNL     1      21.822  -0.813  53.645  1.00  0.00    -0.025 A 
ATOM      9  C   UNL     1      23.192  -0.693  54.016  1.00  0.00    +0.032 A 
ATOM     10  C   UNL     1      21.617   0.051  52.579  1.00  0.00    +0.049 A 
ATOM     11  N   UNL     1      22.820   0.670  52.323  1.00  0.00    -0.354 N 
ATOM     12  C   UNL     1      20.823  -1.699  54.302  1.00  0.00    +0.047 C 
ATOM     13  H   UNL     1      22.972   1.322  51.567  1.00  0.00    +0.167 HD
BRANCH  10  14
ATOM     14  C   UNL     1      20.423   0.327  51.782  1.00  0.00    -0.000 A 
ATOM     15  C   UNL     1      19.183  -0.215  52.152  1.00  0.00    +0.013 A 
ATOM     16  C   UNL     1      20.506   1.138  50.642  1.00  0.00    +0.034 A 
ATOM     17  C   UNL     1      18.042   0.049  51.391  1.00  0.00    +0.041 A 
ATOM     18  C   UNL     1      19.364   1.401  49.884  1.00  0.00    +0.077 A 
ATOM     19  C   UNL     1      18.139   0.856  50.262  1.00  0.00    +0.141 A 
ATOM     20 Cl   UNL     1      19.485   2.401  48.488  1.00  0.00    -0.081 Cl
ATOM     21  F   UNL     1      17.030   1.096  49.547  1.00  0.00    -0.205 F 
ENDBRANCH  10  14
ENDBRANCH   1   7
BRANCH   5  22
ATOM     22  N   UNL     1      28.392   0.141  54.947  1.00  0.00    +0.066 N 
ATOM     23  O   UNL     1      28.096   0.229  56.148  1.00  0.00    -0.258 OA
ATOM     24  O   UNL     1      29.397  -0.421  54.492  1.00  0.00    -0.258 OA
ENDBRANCH   5  22
BRANCH   4  25
ATOM     25  O   UNL     1      29.128   2.099  53.046  1.00  0.00    -0.502 OA
ATOM     26  H   UNL     1      29.139   3.036  52.789  1.00  0.00    +0.293 HD
ENDBRANCH   4  25
TORSDOF 4
ENDMDL
MODEL 6
REMARK VINA RESULT:    -8.182      5.371      6.857
REMARK INTER + INTRA:         -10.660
REMARK INTER:                  -9.801
REMARK INTRA:                  -0.859
REMARK UNBOUND:                -0.804
REMARK SMILES Cc1cc(-c2ccc(O)c([N+](=O)[O-])c2)[nH]c1-c1ccc(F)c(Cl)c1
REMARK SMILES IDX 5 1 6 2 7 3 8 4 10 5 14 6 4 7 2 8 3 9 16 10 15 11 1 12 17 14
REMARK SMILES IDX 18 15 24 16 19 17 22 18 20 19 23 20 21 21 11 22 12 23 13 24
REMARK SMILES IDX 9 25
REMARK H PARENT 15 13 9 26
ROOT
ATOM      1  C   UNL     1      25.232   0.622  52.901  1.00  0.00    +0.005 A 
ATOM      2  C   UNL     1      25.484  -0.752  52.760  1.00  0.00    +0.014 A 
ATOM      3  C   UNL     1      26.763  -1.282  52.986  1.00  0.00    +0.054 A 
ATOM      4  C   UNL     1      27.806  -0.439  53.359  1.00  0.00    +0.194 A 
ATOM      5  C   UNL     1      27.554   0.923  53.504  1.00  0.00    +0.311 A 
ATOM      6  C   UNL     1      26.284   1.466  53.272  1.00  0.00    +0.100 A 
ENDROOT
BRANCH   1   7
ATOM      7  C   UNL     1      23.899   1.175  52.656  1.00  0.00    +0.046 A 
ATOM      8  C   UNL     1      22.062   2.497  52.356  1.00  0.00    -0.025 A 
ATOM      9  C   UNL     1      23.464   2.487  52.609  1.00  0.00    +0.032 A 
ATOM     10  C   UNL     1      21.661   1.172  52.263  1.00  0.00    +0.049 A 
ATOM     11  N   UNL     1      22.783   0.396  52.449  1.00  0.00    -0.354 N 
ATOM     12  C   UNL     1      21.218   3.714  52.214  1.00  0.00    +0.047 C 
ATOM     13  H   UNL     1      22.776  -0.613  52.475  1.00  0.00    +0.167 HD
BRANCH  10  14
ATOM     14  C   UNL     1      20.343   0.581  52.041  1.00  0.00    -0.000 A 
ATOM     15  C   UNL     1      19.585   0.942  50.917  1.00  0.00    +0.013 A 
ATOM     16  C   UNL     1      19.825  -0.353  52.948  1.00  0.00    +0.034 A 
ATOM     17  C   UNL     1      18.325   0.377  50.704  1.00  0.00    +0.041 A 
ATOM     18  C   UNL     1      18.566  -0.916  52.733  1.00  0.00    +0.077 A 
ATOM     19  C   UNL     1      17.824  -0.549  51.613  1.00  0.00    +0.141 A 
ATOM     20 Cl   UNL     1      17.949  -2.065  53.857  1.00  0.00    -0.081 Cl
ATOM     21  F   UNL     1      16.612  -1.079  51.388  1.00  0.00    -0.205 F 
ENDBRANCH  10  14
ENDBRANCH   1   7
BRANCH   5  22
ATOM     22  N   UNL     1      28.613   1.822  53.906  1.00  0.00    +0.066 N 
ATOM     23  O   UNL     1      28.876   2.757  53.135  1.00  0.00    -0.258 OA
ATOM     24  O   UNL     1      29.138   1.630  55.011  1.00  0.00    -0.258 OA
ENDBRANCH   5  22
BRANCH   4  25
ATOM     25  O   UNL     1      29.057  -0.947  53.550  1.00  0.00    -0.502 OA
ATOM     26  H   UNL     1      29.712  -0.229  53.561  1.00  0.00    +0.293 HD
ENDBRANCH   4  25
TORSDOF 4
ENDMDL
MODEL 7
REMARK VINA RESULT:    -8.112      5.978      7.533
REMARK INTER + INTRA:         -10.576
REMARK INTER:                  -9.675
REMARK INTRA:                  -0.901
REMARK UNBOUND:                -0.804
REMARK SMILES Cc1cc(-c2ccc(O)c([N+](=O)[O-])c2)[nH]c1-c1ccc(F)c(Cl)c1
REMARK SMILES IDX 5 1 6 2 7 3 8 4 10 5 14 6 4 7 2 8 3 9 16 10 15 11 1 12 17 14
REMARK SMILES IDX 18 15 24 16 19 17 22 18 20 19 23 20 21 21 11 22 12 23 13 24
REMARK SMILES IDX 9 25
REMARK H PARENT 15 13 9 26
ROOT
ATOM      1  C   UNL     1      21.420   0.911  51.432  1.00  0.00    +0.005 A 
ATOM      2  C   UNL     1      21.636   0.823  50.047  1.00  0.00    +0.014 A 
ATOM      3  C   UNL     1      20.685   1.302  49.133  1.00  0.00    +0.054 A 
ATOM      4  C   UNL     1      19.507   1.879  49.598  1.00  0.00    +0.194 A 
ATOM      5  C   UNL     1      19.297   1.971  50.972  1.00  0.00    +0.311 A 
ATOM      6  C   UNL     1      20.233   1.488  51.894  1.00  0.00    +0.100 A 
ENDROOT
BRANCH   1   7
ATOM      7  C   UNL     1      22.409   0.402  52.384  1.00  0.00    +0.046 A 
ATOM      8  C   UNL     1      23.524  -0.550  54.133  1.00  0.00    -0.025 A 
ATOM      9  C   UNL     1      22.243  -0.309  53.559  1.00  0.00    +0.032 A 
ATOM     10  C   UNL     1      24.459   0.035  53.292  1.00  0.00    +0.049 A 
ATOM     11  N   UNL     1      23.763   0.603  52.248  1.00  0.00    -0.354 N 
ATOM     12  C   UNL     1      23.779  -1.300  55.393  1.00  0.00    +0.047 C 
ATOM     13  H   UNL     1      24.193   1.136  51.505  1.00  0.00    +0.167 HD
BRANCH  10  14
ATOM     14  C   UNL     1      25.914   0.124  53.388  1.00  0.00    -0.000 A 
ATOM     15  C   UNL     1      26.533   1.354  53.659  1.00  0.00    +0.013 A 
ATOM     16  C   UNL     1      26.706  -1.019  53.212  1.00  0.00    +0.034 A 
ATOM     17  C   UNL     1      27.924   1.439  53.751  1.00  0.00    +0.041 A 
ATOM     18  C   UNL     1      28.096  -0.931  53.306  1.00  0.00    +0.077 A 
ATOM     19  C   UNL     1      28.697   0.297  53.575  1.00  0.00    +0.141 A 
ATOM     20 Cl   UNL     1      29.051  -2.347  53.090  1.00  0.00    -0.081 Cl
ATOM     21  F   UNL     1      30.031   0.402  53.669  1.00  0.00    -0.205 F 
ENDBRANCH  10  14
ENDBRANCH   1   7
BRANCH   5  22
ATOM     22  N   UNL     1      18.089   2.580  51.486  1.00  0.00    +0.066 N 
ATOM     23  O   UNL     1      18.206   3.696  52.013  1.00  0.00    -0.258 OA
ATOM     24  O   UNL     1      17.023   1.974  51.309  1.00  0.00    -0.258 OA
ENDBRANCH   5  22
BRANCH   4  25
ATOM     25  O   UNL     1      18.568   2.319  48.712  1.00  0.00    -0.502 OA
ATOM     26  H   UNL     1      18.599   3.288  48.645  1.00  0.00    +0.293 HD
ENDBRANCH   4  25
TORSDOF 4
ENDMDL
MODEL 8
REMARK VINA RESULT:    -7.947      1.877      2.377
REMARK INTER + INTRA:         -10.377
REMARK INTER:                  -9.450
REMARK INTRA:                  -0.927
REMARK UNBOUND:                -0.804
REMARK SMILES Cc1cc(-c2ccc(O)c([N+](=O)[O-])c2)[nH]c1-c1ccc(F)c(Cl)c1
REMARK SMILES IDX 5 1 6 2 7 3 8 4 10 5 14 6 4 7 2 8 3 9 16 10 15 11 1 12 17 14
REMARK SMILES IDX 18 15 24 16 19 17 22 18 20 19 23 20 21 21 11 22 12 23 13 24
REMARK SMILES IDX 9 25
REMARK H PARENT 15 13 9 26
ROOT
ATOM      1  C   UNL     1      22.642   0.401  52.699  1.00  0.00    +0.005 A 
ATOM      2  C   UNL     1      21.524  -0.125  53.368  1.00  0.00    +0.014 A 
ATOM      3  C   UNL     1      21.673  -0.926  54.510  1.00  0.00    +0.054 A 
ATOM      4  C   UNL     1      22.946  -1.208  54.998  1.00  0.00    +0.194 A 
ATOM      5  C   UNL     1      24.053  -0.681  54.337  1.00  0.00    +0.311 A 
ATOM      6  C   UNL     1      23.919   0.112  53.191  1.00  0.00    +0.100 A 
ENDROOT
BRANCH   1   7
ATOM      7  C   UNL     1      22.487   1.230  51.503  1.00  0.00    +0.046 A 
ATOM      8  C   UNL     1      21.999   2.097  49.449  1.00  0.00    -0.025 A 
ATOM      9  C   UNL     1      21.849   0.968  50.304  1.00  0.00    +0.032 A 
ATOM     10  C   UNL     1      22.745   3.035  50.148  1.00  0.00    +0.049 A 
ATOM     11  N   UNL     1      23.027   2.489  51.380  1.00  0.00    -0.354 N 
ATOM     12  C   UNL     1      21.441   2.221  48.075  1.00  0.00    +0.047 C 
ATOM     13  H   UNL     1      23.597   2.940  52.082  1.00  0.00    +0.167 HD
BRANCH  10  14
ATOM     14  C   UNL     1      23.223   4.362  49.764  1.00  0.00    -0.000 A 
ATOM     15  C   UNL     1      24.486   4.517  49.174  1.00  0.00    +0.013 A 
ATOM     16  C   UNL     1      22.422   5.491  49.979  1.00  0.00    +0.034 A 
ATOM     17  C   UNL     1      24.944   5.784  48.806  1.00  0.00    +0.041 A 
ATOM     18  C   UNL     1      22.881   6.757  49.610  1.00  0.00    +0.077 A 
ATOM     19  C   UNL     1      24.138   6.896  49.026  1.00  0.00    +0.141 A 
ATOM     20 Cl   UNL     1      21.882   8.132  49.880  1.00  0.00    -0.081 Cl
ATOM     21  F   UNL     1      24.597   8.104  48.664  1.00  0.00    -0.205 F 
ENDBRANCH  10  14
ENDBRANCH   1   7
BRANCH   5  22
ATOM     22  N   UNL     1      25.388  -0.943  54.829  1.00  0.00    +0.066 N 
ATOM     23  O   UNL     1      26.259  -1.188  53.982  1.00  0.00    -0.258 OA
ATOM     24  O   UNL     1      25.577  -0.846  56.050  1.00  0.00    -0.258 OA
ENDBRANCH   5  22
BRANCH   4  25
ATOM     25  O   UNL     1      23.094  -2.011  56.090  1.00  0.00    -0.502 OA
ATOM     26  H   UNL     1      22.227  -2.337  56.385  1.00  0.00    +0.293 HD
ENDBRANCH   4  25
TORSDOF 4
ENDMDL
MODEL 9
REMARK VINA RESULT:    -7.840      2.991      3.921
REMARK INTER + INTRA:         -10.248
REMARK INTER:                  -9.466
REMARK INTRA:                  -0.782
REMARK UNBOUND:                -0.804
REMARK SMILES Cc1cc(-c2ccc(O)c([N+](=O)[O-])c2)[nH]c1-c1ccc(F)c(Cl)c1
REMARK SMILES IDX 5 1 6 2 7 3 8 4 10 5 14 6 4 7 2 8 3 9 16 10 15 11 1 12 17 14
REMARK SMILES IDX 18 15 24 16 19 17 22 18 20 19 23 20 21 21 11 22 12 23 13 24
REMARK SMILES IDX 9 25
REMARK H PARENT 15 13 9 26
ROOT
ATOM      1  C   UNL     1      22.018   0.612  51.839  1.00  0.00    +0.005 A 
ATOM      2  C   UNL     1      22.979   0.174  52.765  1.00  0.00    +0.014 A 
ATOM      3  C   UNL     1      22.617  -0.619  53.864  1.00  0.00    +0.054 A 
ATOM      4  C   UNL     1      21.287  -0.986  54.047  1.00  0.00    +0.194 A 
ATOM      5  C   UNL     1      20.336  -0.556  53.124  1.00  0.00    +0.311 A 
ATOM      6  C   UNL     1      20.682   0.244  52.029  1.00  0.00    +0.100 A 
ENDROOT
BRANCH   1   7
ATOM      7  C   UNL     1      22.395   1.447  50.697  1.00  0.00    +0.046 A 
ATOM      8  C   UNL     1      22.585   2.498  48.680  1.00  0.00    -0.025 A 
ATOM      9  C   UNL     1      21.833   1.555  49.438  1.00  0.00    +0.032 A 
ATOM     10  C   UNL     1      23.611   2.946  49.499  1.00  0.00    +0.049 A 
ATOM     11  N   UNL     1      23.477   2.297  50.706  1.00  0.00    -0.354 N 
ATOM     12  C   UNL     1      22.293   2.912  47.281  1.00  0.00    +0.047 C 
ATOM     13  H   UNL     1      24.118   2.401  51.480  1.00  0.00    +0.167 HD
BRANCH  10  14
ATOM     14  C   UNL     1      24.696   3.892  49.249  1.00  0.00    -0.000 A 
ATOM     15  C   UNL     1      26.033   3.493  49.395  1.00  0.00    +0.013 A 
ATOM     16  C   UNL     1      24.411   5.208  48.859  1.00  0.00    +0.034 A 
ATOM     17  C   UNL     1      27.071   4.398  49.156  1.00  0.00    +0.041 A 
ATOM     18  C   UNL     1      25.449   6.109  48.619  1.00  0.00    +0.077 A 
ATOM     19  C   UNL     1      26.773   5.700  48.769  1.00  0.00    +0.141 A 
ATOM     20 Cl   UNL     1      25.078   7.720  48.138  1.00  0.00    -0.081 Cl
ATOM     21  F   UNL     1      27.785   6.551  48.543  1.00  0.00    -0.205 F 
ENDBRANCH  10  14
ENDBRANCH   1   7
BRANCH   5  22
ATOM     22  N   UNL     1      18.948  -0.933  53.278  1.00  0.00    +0.066 N 
ATOM     23  O   UNL     1      18.721  -2.105  53.611  1.00  0.00    -0.258 OA
ATOM     24  O   UNL     1      18.094  -0.048  53.127  1.00  0.00    -0.258 OA
ENDBRANCH   5  22
BRANCH   4  25
ATOM     25  O   UNL     1      20.928  -1.731  55.131  1.00  0.00    -0.502 OA
ATOM     26  H   UNL     1      20.065  -1.438  55.468  1.00  0.00    +0.293 HD
ENDBRANCH   4  25
TORSDOF 4
ENDMDL
