REMARK SMILES O=[N+]([O-])c1ccc(O)cc1-c1ccc(-c2ccc(O)cc2)[nH]1
REMARK SMILES IDX 11 1 12 2 13 3 14 4 22 5 10 7 4 8 5 9 6 10 9 11 7 12 2 13
REMARK SMILES IDX 1 14 3 15 8 16 15 18 16 19 21 20 17 21 20 22 18 23 19 24
REMARK H PARENT 22 6 8 17 19 25
ROOT
ATOM      1  C   UNL     1      -1.009  -0.432  -0.626  1.00  0.00    +0.053 A 
ATOM      2  C   UNL     1      -0.609  -1.293  -1.631  1.00  0.00    +0.029 A 
ATOM      3  C   UNL     1       0.806  -1.320  -1.643  1.00  0.00    +0.029 A 
ATOM      4  C   UNL     1       1.263  -0.465  -0.655  1.00  0.00    +0.046 A 
ATOM      5  N   UNL     1       0.142   0.054  -0.044  1.00  0.00    -0.354 N 
ATOM      6  H   UNL     1       0.163   0.678   0.750  1.00  0.00    +0.167 HD
ENDROOT
BRANCH   1   7
ATOM      7  C   UNL     1      -2.345  -0.041  -0.176  1.00  0.00    +0.079 A 
ATOM      8  C   UNL     1      -3.356  -0.955   0.155  1.00  0.00    +0.278 A 
ATOM      9  C   UNL     1      -4.638  -0.546   0.557  1.00  0.00    +0.090 A 
ATOM     10  C   UNL     1      -4.923   0.815   0.640  1.00  0.00    +0.053 A 
ATOM     11  C   UNL     1      -2.659   1.324  -0.083  1.00  0.00    +0.063 A 
ATOM     12  C   UNL     1      -3.930   1.737   0.320  1.00  0.00    +0.116 A 
BRANCH   8  13
ATOM     13  N   UNL     1      -3.098  -2.378   0.134  1.00  0.00    +0.063 N 
ATOM     14  O   UNL     1      -2.464  -2.851   1.087  1.00  0.00    -0.258 OA
ATOM     15  O   UNL     1      -3.585  -3.021  -0.807  1.00  0.00    -0.258 OA
ENDBRANCH   8  13
BRANCH  12  16
ATOM     16  O   UNL     1      -4.163   3.079   0.387  1.00  0.00    -0.508 OA
ATOM     17  H   UNL     1      -5.087   3.231   0.644  1.00  0.00    +0.293 HD
ENDBRANCH  12  16
ENDBRANCH   1   7
BRANCH   4  18
ATOM     18  C   UNL     1       2.625  -0.135  -0.236  1.00  0.00    -0.002 A 
ATOM     19  C   UNL     1       3.626  -1.116  -0.250  1.00  0.00    +0.014 A 
ATOM     20  C   UNL     1       2.960   1.163   0.180  1.00  0.00    +0.014 A 
ATOM     21  C   UNL     1       4.929  -0.810   0.150  1.00  0.00    +0.047 A 
ATOM     22  C   UNL     1       4.265   1.472   0.579  1.00  0.00    +0.047 A 
ATOM     23  C   UNL     1       5.238   0.480   0.561  1.00  0.00    +0.115 A 
BRANCH  23  24
ATOM     24  O   UNL     1       6.522   0.736   0.941  1.00  0.00    -0.508 OA
ATOM     25  H   UNL     1       6.592   1.671   1.189  1.00  0.00    +0.293 HD
ENDBRANCH  23  24
ENDBRANCH   4  18
TORSDOF 5
