REMARK SMILES N#CC(C#N)=C(N)C(C#N)=C1C(=O)Nc2ncnc(-c3ccc(F)c(Cl)c3)c21
REMARK SMILES IDX 8 1 9 2 10 3 11 4 12 5 13 6 14 7 15 8 16 9 17 10 18 11 19 12
REMARK SMILES IDX 28 13 6 15 1 16 2 17 3 18 4 19 5 20 7 21 20 24 21 25 27 26
REMARK SMILES IDX 22 27 25 28 23 29 26 30 24 31
REMARK H PARENT 14 14 7 22 7 23
ROOT
ATOM      1  C   UNL     1       1.510  -0.137  -0.289  1.00  0.00    +0.091 C 
ATOM      2  C   UNL     1       0.875  -0.678  -1.450  1.00  0.00    +0.102 C 
ATOM      3  N   UNL     1       0.393  -1.111  -2.412  1.00  0.00    -0.192 NA
ATOM      4  C   UNL     1       0.944   0.843   0.451  1.00  0.00    +0.073 C 
ATOM      5  C   UNL     1       1.764   1.613   1.462  1.00  0.00    +0.259 C 
ATOM      6  O   UNL     1       2.860   1.331   1.903  1.00  0.00    -0.269 OA
ATOM      7  N   UNL     1       1.015   2.726   1.756  1.00  0.00    -0.306 N 
ATOM      8  C   UNL     1      -0.225   2.686   1.141  1.00  0.00    +0.145 A 
ATOM      9  N   UNL     1      -1.143   3.628   1.345  1.00  0.00    -0.218 NA
ATOM     10  C   UNL     1      -2.312   3.362   0.757  1.00  0.00    +0.224 A 
ATOM     11  N   UNL     1      -2.607   2.245   0.067  1.00  0.00    -0.236 NA
ATOM     12  C   UNL     1      -1.637   1.302  -0.074  1.00  0.00    +0.084 A 
ATOM     13  C   UNL     1      -0.362   1.526   0.391  1.00  0.00    +0.058 A 
ATOM     14  H   UNL     1       1.284   3.446   2.409  1.00  0.00    +0.171 HD
ENDROOT
BRANCH   1  15
ATOM     15  C   UNL     1       2.858  -0.695  -0.025  1.00  0.00    +0.079 C 
ATOM     16  N   UNL     1       5.383  -2.580   1.447  1.00  0.00    -0.192 NA
ATOM     17  C   UNL     1       4.324  -2.150   1.245  1.00  0.00    +0.113 C 
ATOM     18  C   UNL     1       3.039  -1.601   0.975  1.00  0.00    +0.153 C 
ATOM     19  C   UNL     1       1.956  -2.025   1.798  1.00  0.00    +0.113 C 
ATOM     20  N   UNL     1       1.025  -2.309   2.432  1.00  0.00    -0.192 NA
BRANCH  15  21
ATOM     21  N   UNL     1       3.864  -0.226  -0.868  1.00  0.00    -0.396 N 
ATOM     22  H   UNL     1       4.818  -0.368  -0.531  1.00  0.00    +0.156 HD
ATOM     23  H   UNL     1       3.741   0.736  -1.184  1.00  0.00    +0.156 HD
ENDBRANCH  15  21
ENDBRANCH   1  15
BRANCH  12  24
ATOM     24  C   UNL     1      -2.136   0.043  -0.637  1.00  0.00    +0.003 A 
ATOM     25  C   UNL     1      -2.792   0.027  -1.883  1.00  0.00    +0.013 A 
ATOM     26  C   UNL     1      -2.034  -1.168   0.076  1.00  0.00    +0.034 A 
ATOM     27  C   UNL     1      -3.296  -1.161  -2.418  1.00  0.00    +0.041 A 
ATOM     28  C   UNL     1      -2.537  -2.356  -0.463  1.00  0.00    +0.077 A 
ATOM     29  C   UNL     1      -3.161  -2.347  -1.707  1.00  0.00    +0.141 A 
ATOM     30 Cl   UNL     1      -2.377  -3.819   0.429  1.00  0.00    -0.081 Cl
ATOM     31  F   UNL     1      -3.654  -3.477  -2.236  1.00  0.00    -0.205 F 
ENDBRANCH  12  24
TORSDOF 3
