MODEL 1
REMARK VINA RESULT:    -8.561      0.000      0.000
REMARK INTER + INTRA:         -11.693
REMARK INTER:                 -10.813
REMARK INTRA:                  -0.880
REMARK UNBOUND:                -0.880
REMARK SMILES Cc1cccc(N(C(=O)c2ccc(O)cc2)c2[nH]c(C)cc2C)c1
REMARK SMILES IDX 8 1 9 2 7 3 6 4 2 5 3 6 24 7 4 8 5 9 1 10 17 11 18 12 22 13
REMARK SMILES IDX 19 14 21 15 23 17 20 18 10 19 11 20 16 21 12 22 15 23 13 24
REMARK SMILES IDX 14 25
REMARK H PARENT 18 16 14 26
ROOT
ATOM      1  C   UNL     1      25.990   1.791  53.110  1.00  0.00    +0.263 C 
ATOM      2  O   UNL     1      26.232   2.461  54.117  1.00  0.00    -0.268 OA
ENDROOT
BRANCH   1   3
ATOM      3  N   UNL     1      25.053   2.152  52.120  1.00  0.00    -0.262 N 
BRANCH   3   4
ATOM      4  C   UNL     1      23.747   1.540  52.093  1.00  0.00    +0.051 A 
ATOM      5  C   UNL     1      21.902   0.441  53.282  1.00  0.00    -0.049 A 
ATOM      6  C   UNL     1      21.211   0.295  52.077  1.00  0.00    +0.003 A 
ATOM      7  C   UNL     1      23.166   1.054  53.278  1.00  0.00    +0.030 A 
ATOM      8  C   UNL     1      21.758   0.784  50.894  1.00  0.00    +0.002 A 
ATOM      9  C   UNL     1      23.011   1.405  50.904  1.00  0.00    +0.027 A 
ATOM     10  C   UNL     1      21.329  -0.094  54.560  1.00  0.00    +0.044 C 
ENDBRANCH   3   4
BRANCH   3  11
ATOM     11  C   UNL     1      25.300   3.214  51.240  1.00  0.00    +0.120 A 
ATOM     12  N   UNL     1      26.373   3.171  50.372  1.00  0.00    -0.345 N 
ATOM     13  C   UNL     1      24.666   4.436  51.041  1.00  0.00    -0.008 A 
ATOM     14  C   UNL     1      26.473   4.339  49.664  1.00  0.00    +0.014 A 
ATOM     15  C   UNL     1      25.424   5.140  50.057  1.00  0.00    +0.028 A 
ATOM     16  H   UNL     1      27.016   2.393  50.310  1.00  0.00    +0.168 HD
ATOM     17  C   UNL     1      23.411   4.949  51.653  1.00  0.00    +0.048 C 
ATOM     18  C   UNL     1      27.558   4.567  48.680  1.00  0.00    +0.064 C 
ENDBRANCH   3  11
ENDBRANCH   1   3
BRANCH   1  19
ATOM     19  C   UNL     1      26.700   0.480  53.015  1.00  0.00    +0.041 A 
ATOM     20  C   UNL     1      27.966   0.363  53.610  1.00  0.00    +0.017 A 
ATOM     21  C   UNL     1      26.105  -0.648  52.435  1.00  0.00    +0.017 A 
ATOM     22  C   UNL     1      28.652  -0.854  53.582  1.00  0.00    +0.047 A 
ATOM     23  C   UNL     1      26.793  -1.863  52.405  1.00  0.00    +0.047 A 
ATOM     24  C   UNL     1      28.059  -1.955  52.973  1.00  0.00    +0.115 A 
BRANCH  24  25
ATOM     25  O   UNL     1      28.689  -3.163  52.922  1.00  0.00    -0.508 OA
ATOM     26  H   UNL     1      28.600  -3.523  52.025  1.00  0.00    +0.293 HD
ENDBRANCH  24  25
ENDBRANCH   1  19
TORSDOF 5
ENDMDL
MODEL 2
REMARK VINA RESULT:    -8.533      0.864      1.606
REMARK INTER + INTRA:         -11.658
REMARK INTER:                 -10.668
REMARK INTRA:                  -0.990
REMARK UNBOUND:                -0.880
REMARK SMILES Cc1cccc(N(C(=O)c2ccc(O)cc2)c2[nH]c(C)cc2C)c1
REMARK SMILES IDX 8 1 9 2 7 3 6 4 2 5 3 6 24 7 4 8 5 9 1 10 17 11 18 12 22 13
REMARK SMILES IDX 19 14 21 15 23 17 20 18 10 19 11 20 16 21 12 22 15 23 13 24
REMARK SMILES IDX 14 25
REMARK H PARENT 18 16 14 26
ROOT
ATOM      1  C   UNL     1      25.831   1.825  53.222  1.00  0.00    +0.263 C 
ATOM      2  O   UNL     1      26.134   2.485  54.220  1.00  0.00    -0.268 OA
ENDROOT
BRANCH   1   3
ATOM      3  N   UNL     1      24.837   2.198  52.294  1.00  0.00    -0.262 N 
BRANCH   3   4
ATOM      4  C   UNL     1      23.586   1.482  52.238  1.00  0.00    +0.051 A 
ATOM      5  C   UNL     1      21.827   0.205  53.378  1.00  0.00    -0.049 A 
ATOM      6  C   UNL     1      21.162   0.034  52.162  1.00  0.00    +0.003 A 
ATOM      7  C   UNL     1      23.037   0.919  53.403  1.00  0.00    +0.030 A 
ATOM      8  C   UNL     1      21.677   0.597  50.998  1.00  0.00    +0.002 A 
ATOM      9  C   UNL     1      22.874   1.318  51.037  1.00  0.00    +0.027 A 
ATOM     10  C   UNL     1      21.289  -0.409  54.635  1.00  0.00    +0.044 C 
ENDBRANCH   3   4
BRANCH   3  11
ATOM     11  C   UNL     1      24.967   3.356  51.517  1.00  0.00    +0.120 A 
ATOM     12  N   UNL     1      24.297   4.513  51.862  1.00  0.00    -0.345 N 
ATOM     13  C   UNL     1      25.663   3.626  50.343  1.00  0.00    -0.008 A 
ATOM     14  C   UNL     1      24.503   5.492  50.926  1.00  0.00    +0.014 A 
ATOM     15  C   UNL     1      25.350   4.969  49.975  1.00  0.00    +0.028 A 
ATOM     16  H   UNL     1      23.703   4.598  52.676  1.00  0.00    +0.168 HD
ATOM     17  C   UNL     1      26.611   2.755  49.596  1.00  0.00    +0.048 C 
ATOM     18  C   UNL     1      23.873   6.829  51.042  1.00  0.00    +0.064 C 
ENDBRANCH   3  11
ENDBRANCH   1   3
BRANCH   1  19
ATOM     19  C   UNL     1      26.532   0.515  53.070  1.00  0.00    +0.041 A 
ATOM     20  C   UNL     1      27.807   0.371  53.641  1.00  0.00    +0.017 A 
ATOM     21  C   UNL     1      25.922  -0.589  52.461  1.00  0.00    +0.017 A 
ATOM     22  C   UNL     1      28.485  -0.848  53.560  1.00  0.00    +0.047 A 
ATOM     23  C   UNL     1      26.602  -1.806  52.377  1.00  0.00    +0.047 A 
ATOM     24  C   UNL     1      27.876  -1.925  52.923  1.00  0.00    +0.115 A 
BRANCH  24  25
ATOM     25  O   UNL     1      28.499  -3.132  52.820  1.00  0.00    -0.508 OA
ATOM     26  H   UNL     1      29.330  -3.015  52.330  1.00  0.00    +0.293 HD
ENDBRANCH  24  25
ENDBRANCH   1  19
TORSDOF 5
ENDMDL
MODEL 3
REMARK VINA RESULT:    -8.411      1.700      2.626
REMARK INTER + INTRA:         -11.504
REMARK INTER:                 -10.020
REMARK INTRA:                  -1.483
REMARK UNBOUND:                -0.880
REMARK SMILES Cc1cccc(N(C(=O)c2ccc(O)cc2)c2[nH]c(C)cc2C)c1
REMARK SMILES IDX 8 1 9 2 7 3 6 4 2 5 3 6 24 7 4 8 5 9 1 10 17 11 18 12 22 13
REMARK SMILES IDX 19 14 21 15 23 17 20 18 10 19 11 20 16 21 12 22 15 23 13 24
REMARK SMILES IDX 14 25
REMARK H PARENT 18 16 14 26
ROOT
ATOM      1  C   UNL     1      24.638   2.694  52.495  1.00  0.00    +0.263 C 
ATOM      2  O   UNL     1      24.430   3.289  53.557  1.00  0.00    -0.268 OA
ENDROOT
BRANCH   1   3
ATOM      3  N   UNL     1      24.263   3.180  51.226  1.00  0.00    -0.262 N 
BRANCH   3   4
ATOM      4  C   UNL     1      23.237   2.514  50.462  1.00  0.00    +0.051 A 
ATOM      5  C   UNL     1      21.206   1.137  50.400  1.00  0.00    -0.049 A 
ATOM      6  C   UNL     1      21.234   1.157  49.004  1.00  0.00    +0.003 A 
ATOM      7  C   UNL     1      22.212   1.808  51.116  1.00  0.00    +0.030 A 
ATOM      8  C   UNL     1      22.229   1.863  48.335  1.00  0.00    +0.002 A 
ATOM      9  C   UNL     1      23.217   2.539  49.057  1.00  0.00    +0.027 A 
ATOM     10  C   UNL     1      20.147   0.367  51.131  1.00  0.00    +0.044 C 
ENDBRANCH   3   4
BRANCH   3  11
ATOM     11  C   UNL     1      24.757   4.398  50.740  1.00  0.00    +0.120 A 
ATOM     12  N   UNL     1      24.160   5.591  51.098  1.00  0.00    -0.345 N 
ATOM     13  C   UNL     1      25.796   4.710  49.870  1.00  0.00    -0.008 A 
ATOM     14  C   UNL     1      24.751   6.643  50.450  1.00  0.00    +0.014 A 
ATOM     15  C   UNL     1      25.771   6.125  49.685  1.00  0.00    +0.028 A 
ATOM     16  H   UNL     1      23.367   5.659  51.721  1.00  0.00    +0.168 HD
ATOM     17  C   UNL     1      26.810   3.806  49.261  1.00  0.00    +0.048 C 
ATOM     18  C   UNL     1      24.282   8.037  50.635  1.00  0.00    +0.064 C 
ENDBRANCH   3  11
ENDBRANCH   1   3
BRANCH   1  19
ATOM     19  C   UNL     1      25.254   1.340  52.618  1.00  0.00    +0.041 A 
ATOM     20  C   UNL     1      26.423   1.071  51.887  1.00  0.00    +0.017 A 
ATOM     21  C   UNL     1      24.756   0.373  53.500  1.00  0.00    +0.017 A 
ATOM     22  C   UNL     1      27.058  -0.169  51.999  1.00  0.00    +0.047 A 
ATOM     23  C   UNL     1      25.390  -0.867  53.609  1.00  0.00    +0.047 A 
ATOM     24  C   UNL     1      26.531  -1.129  52.857  1.00  0.00    +0.115 A 
BRANCH  24  25
ATOM     25  O   UNL     1      27.117  -2.351  53.000  1.00  0.00    -0.508 OA
ATOM     26  H   UNL     1      27.586  -2.374  53.850  1.00  0.00    +0.293 HD
ENDBRANCH  24  25
ENDBRANCH   1  19
TORSDOF 5
ENDMDL
MODEL 4
REMARK VINA RESULT:    -7.911      1.978      2.860
REMARK INTER + INTRA:         -10.873
REMARK INTER:                  -9.619
REMARK INTRA:                  -1.254
REMARK UNBOUND:                -0.880
REMARK SMILES Cc1cccc(N(C(=O)c2ccc(O)cc2)c2[nH]c(C)cc2C)c1
REMARK SMILES IDX 8 1 9 2 7 3 6 4 2 5 3 6 24 7 4 8 5 9 1 10 17 11 18 12 22 13
REMARK SMILES IDX 19 14 21 15 23 17 20 18 10 19 11 20 16 21 12 22 15 23 13 24
REMARK SMILES IDX 14 25
REMARK H PARENT 18 16 14 26
ROOT
ATOM      1  C   UNL     1      26.104   2.879  50.855  1.00  0.00    +0.263 C 
ATOM      2  O   UNL     1      27.220   3.107  50.377  1.00  0.00    -0.268 OA
ENDROOT
BRANCH   1   3
ATOM      3  N   UNL     1      24.920   3.532  50.457  1.00  0.00    -0.262 N 
BRANCH   3   4
ATOM      4  C   UNL     1      23.788   2.772  49.988  1.00  0.00    +0.051 A 
ATOM      5  C   UNL     1      21.998   1.153  50.435  1.00  0.00    -0.049 A 
ATOM      6  C   UNL     1      21.595   1.229  49.100  1.00  0.00    +0.003 A 
ATOM      7  C   UNL     1      23.095   1.918  50.864  1.00  0.00    +0.030 A 
ATOM      8  C   UNL     1      22.254   2.081  48.218  1.00  0.00    +0.002 A 
ATOM      9  C   UNL     1      23.337   2.847  48.659  1.00  0.00    +0.027 A 
ATOM     10  C   UNL     1      21.303   0.229  51.390  1.00  0.00    +0.044 C 
ENDBRANCH   3   4
BRANCH   3  11
ATOM     11  C   UNL     1      24.752   4.911  50.649  1.00  0.00    +0.120 A 
ATOM     12  N   UNL     1      25.659   5.808  50.123  1.00  0.00    -0.345 N 
ATOM     13  C   UNL     1      23.802   5.653  51.342  1.00  0.00    -0.008 A 
ATOM     14  C   UNL     1      25.349   7.089  50.498  1.00  0.00    +0.014 A 
ATOM     15  C   UNL     1      24.198   7.021  51.251  1.00  0.00    +0.028 A 
ATOM     16  H   UNL     1      26.465   5.539  49.575  1.00  0.00    +0.168 HD
ATOM     17  C   UNL     1      22.561   5.187  52.019  1.00  0.00    +0.048 C 
ATOM     18  C   UNL     1      26.180   8.246  50.090  1.00  0.00    +0.064 C 
ENDBRANCH   3  11
ENDBRANCH   1   3
BRANCH   1  19
ATOM     19  C   UNL     1      26.068   1.899  51.981  1.00  0.00    +0.041 A 
ATOM     20  C   UNL     1      26.442   0.571  51.720  1.00  0.00    +0.017 A 
ATOM     21  C   UNL     1      25.762   2.284  53.292  1.00  0.00    +0.017 A 
ATOM     22  C   UNL     1      26.462  -0.373  52.750  1.00  0.00    +0.047 A 
ATOM     23  C   UNL     1      25.779   1.338  54.320  1.00  0.00    +0.047 A 
ATOM     24  C   UNL     1      26.124   0.020  54.041  1.00  0.00    +0.115 A 
BRANCH  24  25
ATOM     25  O   UNL     1      26.130  -0.866  55.077  1.00  0.00    -0.508 OA
ATOM     26  H   UNL     1      27.031  -1.213  55.185  1.00  0.00    +0.293 HD
ENDBRANCH  24  25
ENDBRANCH   1  19
TORSDOF 5
ENDMDL
MODEL 5
REMARK VINA RESULT:    -7.889      0.867      4.572
REMARK INTER + INTRA:         -10.844
REMARK INTER:                 -10.376
REMARK INTRA:                  -0.468
REMARK UNBOUND:                -0.880
REMARK SMILES Cc1cccc(N(C(=O)c2ccc(O)cc2)c2[nH]c(C)cc2C)c1
REMARK SMILES IDX 8 1 9 2 7 3 6 4 2 5 3 6 24 7 4 8 5 9 1 10 17 11 18 12 22 13
REMARK SMILES IDX 19 14 21 15 23 17 20 18 10 19 11 20 16 21 12 22 15 23 13 24
REMARK SMILES IDX 14 25
REMARK H PARENT 18 16 14 26
ROOT
ATOM      1  C   UNL     1      25.745   1.730  53.488  1.00  0.00    +0.263 C 
ATOM      2  O   UNL     1      26.130   2.379  54.465  1.00  0.00    -0.268 OA
ENDROOT
BRANCH   1   3
ATOM      3  N   UNL     1      24.658   2.097  52.668  1.00  0.00    -0.262 N 
BRANCH   3   4
ATOM      4  C   UNL     1      24.780   3.195  51.742  1.00  0.00    +0.051 A 
ATOM      5  C   UNL     1      25.981   4.282  49.898  1.00  0.00    -0.049 A 
ATOM      6  C   UNL     1      25.083   5.350  49.941  1.00  0.00    +0.003 A 
ATOM      7  C   UNL     1      25.826   3.219  50.804  1.00  0.00    +0.030 A 
ATOM      8  C   UNL     1      24.028   5.341  50.850  1.00  0.00    +0.002 A 
ATOM      9  C   UNL     1      23.877   4.272  51.738  1.00  0.00    +0.027 A 
ATOM     10  C   UNL     1      27.128   4.289  48.932  1.00  0.00    +0.044 C 
ENDBRANCH   3   4
BRANCH   3  11
ATOM     11  C   UNL     1      23.494   1.319  52.616  1.00  0.00    +0.120 A 
ATOM     12  N   UNL     1      23.031   0.671  53.744  1.00  0.00    -0.345 N 
ATOM     13  C   UNL     1      22.629   0.992  51.577  1.00  0.00    -0.008 A 
ATOM     14  C   UNL     1      21.932  -0.092  53.449  1.00  0.00    +0.014 A 
ATOM     15  C   UNL     1      21.659   0.092  52.113  1.00  0.00    +0.028 A 
ATOM     16  H   UNL     1      23.478   0.727  54.649  1.00  0.00    +0.168 HD
ATOM     17  C   UNL     1      22.620   1.492  50.175  1.00  0.00    +0.048 C 
ATOM     18  C   UNL     1      21.253  -0.914  54.479  1.00  0.00    +0.064 C 
ENDBRANCH   3  11
ENDBRANCH   1   3
BRANCH   1  19
ATOM     19  C   UNL     1      26.453   0.437  53.246  1.00  0.00    +0.041 A 
ATOM     20  C   UNL     1      27.755   0.286  53.750  1.00  0.00    +0.017 A 
ATOM     21  C   UNL     1      25.829  -0.646  52.615  1.00  0.00    +0.017 A 
ATOM     22  C   UNL     1      28.443  -0.919  53.583  1.00  0.00    +0.047 A 
ATOM     23  C   UNL     1      26.519  -1.849  52.445  1.00  0.00    +0.047 A 
ATOM     24  C   UNL     1      27.818  -1.974  52.926  1.00  0.00    +0.115 A 
BRANCH  24  25
ATOM     25  O   UNL     1      28.449  -3.167  52.740  1.00  0.00    -0.508 OA
ATOM     26  H   UNL     1      28.816  -3.189  51.840  1.00  0.00    +0.293 HD
ENDBRANCH  24  25
ENDBRANCH   1  19
TORSDOF 5
ENDMDL
MODEL 6
REMARK VINA RESULT:    -7.702      1.778      2.340
REMARK INTER + INTRA:         -10.608
REMARK INTER:                 -10.218
REMARK INTRA:                  -0.391
REMARK UNBOUND:                -0.880
REMARK SMILES Cc1cccc(N(C(=O)c2ccc(O)cc2)c2[nH]c(C)cc2C)c1
REMARK SMILES IDX 8 1 9 2 7 3 6 4 2 5 3 6 24 7 4 8 5 9 1 10 17 11 18 12 22 13
REMARK SMILES IDX 19 14 21 15 23 17 20 18 10 19 11 20 16 21 12 22 15 23 13 24
REMARK SMILES IDX 14 25
REMARK H PARENT 18 16 14 26
ROOT
ATOM      1  C   UNL     1      25.430   1.494  53.361  1.00  0.00    +0.263 C 
ATOM      2  O   UNL     1      25.811   2.481  53.996  1.00  0.00    -0.268 OA
ENDROOT
BRANCH   1   3
ATOM      3  N   UNL     1      24.139   1.351  52.812  1.00  0.00    -0.262 N 
BRANCH   3   4
ATOM      4  C   UNL     1      23.190   0.441  53.405  1.00  0.00    +0.051 A 
ATOM      5  C   UNL     1      20.904  -0.444  53.530  1.00  0.00    -0.049 A 
ATOM      6  C   UNL     1      21.289  -1.293  54.570  1.00  0.00    +0.003 A 
ATOM      7  C   UNL     1      21.856   0.421  52.964  1.00  0.00    +0.030 A 
ATOM      8  C   UNL     1      22.609  -1.303  55.012  1.00  0.00    +0.002 A 
ATOM      9  C   UNL     1      23.550  -0.448  54.432  1.00  0.00    +0.027 A 
ATOM     10  C   UNL     1      19.482  -0.414  53.056  1.00  0.00    +0.044 C 
ENDBRANCH   3   4
BRANCH   3  11
ATOM     11  C   UNL     1      23.691   2.191  51.783  1.00  0.00    +0.120 A 
ATOM     12  N   UNL     1      23.462   1.689  50.517  1.00  0.00    -0.345 N 
ATOM     13  C   UNL     1      23.426   3.555  51.733  1.00  0.00    -0.008 A 
ATOM     14  C   UNL     1      23.109   2.692  49.654  1.00  0.00    +0.014 A 
ATOM     15  C   UNL     1      23.075   3.859  50.384  1.00  0.00    +0.028 A 
ATOM     16  H   UNL     1      23.586   0.718  50.266  1.00  0.00    +0.168 HD
ATOM     17  C   UNL     1      23.429   4.550  52.840  1.00  0.00    +0.048 C 
ATOM     18  C   UNL     1      22.834   2.430  48.221  1.00  0.00    +0.064 C 
ENDBRANCH   3  11
ENDBRANCH   1   3
BRANCH   1  19
ATOM     19  C   UNL     1      26.407   0.368  53.261  1.00  0.00    +0.041 A 
ATOM     20  C   UNL     1      27.569   0.423  54.046  1.00  0.00    +0.017 A 
ATOM     21  C   UNL     1      26.154  -0.769  52.483  1.00  0.00    +0.017 A 
ATOM     22  C   UNL     1      28.493  -0.626  54.017  1.00  0.00    +0.047 A 
ATOM     23  C   UNL     1      27.079  -1.815  52.452  1.00  0.00    +0.047 A 
ATOM     24  C   UNL     1      28.240  -1.733  53.214  1.00  0.00    +0.115 A 
BRANCH  24  25
ATOM     25  O   UNL     1      29.112  -2.779  53.154  1.00  0.00    -0.508 OA
ATOM     26  H   UNL     1      29.275  -2.995  52.221  1.00  0.00    +0.293 HD
ENDBRANCH  24  25
ENDBRANCH   1  19
TORSDOF 5
ENDMDL
MODEL 7
REMARK VINA RESULT:    -7.660      1.823      2.998
REMARK INTER + INTRA:         -10.555
REMARK INTER:                  -9.427
REMARK INTRA:                  -1.128
REMARK UNBOUND:                -0.880
REMARK SMILES Cc1cccc(N(C(=O)c2ccc(O)cc2)c2[nH]c(C)cc2C)c1
REMARK SMILES IDX 8 1 9 2 7 3 6 4 2 5 3 6 24 7 4 8 5 9 1 10 17 11 18 12 22 13
REMARK SMILES IDX 19 14 21 15 23 17 20 18 10 19 11 20 16 21 12 22 15 23 13 24
REMARK SMILES IDX 14 25
REMARK H PARENT 18 16 14 26
ROOT
ATOM      1  C   UNL     1      24.696   2.885  52.224  1.00  0.00    +0.263 C 
ATOM      2  O   UNL     1      24.115   3.443  53.160  1.00  0.00    -0.268 OA
ENDROOT
BRANCH   1   3
ATOM      3  N   UNL     1      24.512   3.213  50.865  1.00  0.00    -0.262 N 
BRANCH   3   4
ATOM      4  C   UNL     1      23.458   2.594  50.101  1.00  0.00    +0.051 A 
ATOM      5  C   UNL     1      22.153   2.454  48.027  1.00  0.00    -0.049 A 
ATOM      6  C   UNL     1      21.373   1.438  48.585  1.00  0.00    +0.003 A 
ATOM      7  C   UNL     1      23.182   3.027  48.792  1.00  0.00    +0.030 A 
ATOM      8  C   UNL     1      21.640   0.980  49.872  1.00  0.00    +0.002 A 
ATOM      9  C   UNL     1      22.675   1.549  50.620  1.00  0.00    +0.027 A 
ATOM     10  C   UNL     1      21.866   2.965  46.647  1.00  0.00    +0.044 C 
ENDBRANCH   3   4
BRANCH   3  11
ATOM     11  C   UNL     1      25.238   4.251  50.265  1.00  0.00    +0.120 A 
ATOM     12  N   UNL     1      26.396   3.983  49.562  1.00  0.00    -0.345 N 
ATOM     13  C   UNL     1      25.056   5.630  50.237  1.00  0.00    -0.008 A 
ATOM     14  C   UNL     1      26.982   5.144  49.132  1.00  0.00    +0.014 A 
ATOM     15  C   UNL     1      26.169   6.180  49.533  1.00  0.00    +0.028 A 
ATOM     16  H   UNL     1      26.772   3.054  49.430  1.00  0.00    +0.168 HD
ATOM     17  C   UNL     1      23.921   6.435  50.764  1.00  0.00    +0.048 C 
ATOM     18  C   UNL     1      28.256   5.141  48.374  1.00  0.00    +0.064 C 
ENDBRANCH   3  11
ENDBRANCH   1   3
BRANCH   1  19
ATOM     19  C   UNL     1      25.580   1.740  52.598  1.00  0.00    +0.041 A 
ATOM     20  C   UNL     1      24.978   0.536  52.996  1.00  0.00    +0.017 A 
ATOM     21  C   UNL     1      26.973   1.807  52.476  1.00  0.00    +0.017 A 
ATOM     22  C   UNL     1      25.763  -0.575  53.317  1.00  0.00    +0.047 A 
ATOM     23  C   UNL     1      27.757   0.696  52.800  1.00  0.00    +0.047 A 
ATOM     24  C   UNL     1      27.147  -0.481  53.220  1.00  0.00    +0.115 A 
BRANCH  24  25
ATOM     25  O   UNL     1      27.953  -1.538  53.522  1.00  0.00    -0.508 OA
ATOM     26  H   UNL     1      27.745  -1.842  54.421  1.00  0.00    +0.293 HD
ENDBRANCH  24  25
ENDBRANCH   1  19
TORSDOF 5
ENDMDL
MODEL 8
REMARK VINA RESULT:    -7.605      3.595      6.494
REMARK INTER + INTRA:         -10.486
REMARK INTER:                  -9.043
REMARK INTRA:                  -1.443
REMARK UNBOUND:                -0.880
REMARK SMILES Cc1cccc(N(C(=O)c2ccc(O)cc2)c2[nH]c(C)cc2C)c1
REMARK SMILES IDX 8 1 9 2 7 3 6 4 2 5 3 6 24 7 4 8 5 9 1 10 17 11 18 12 22 13
REMARK SMILES IDX 19 14 21 15 23 17 20 18 10 19 11 20 16 21 12 22 15 23 13 24
REMARK SMILES IDX 14 25
REMARK H PARENT 18 16 14 26
ROOT
ATOM      1  C   UNL     1      20.293   2.440  52.083  1.00  0.00    +0.263 C 
ATOM      2  O   UNL     1      19.945   3.359  52.830  1.00  0.00    -0.268 OA
ENDROOT
BRANCH   1   3
ATOM      3  N   UNL     1      21.626   2.010  51.918  1.00  0.00    -0.262 N 
BRANCH   3   4
ATOM      4  C   UNL     1      22.182   1.004  52.788  1.00  0.00    +0.051 A 
ATOM      5  C   UNL     1      24.098  -0.362  53.486  1.00  0.00    -0.049 A 
ATOM      6  C   UNL     1      23.300  -0.994  54.443  1.00  0.00    +0.003 A 
ATOM      7  C   UNL     1      23.530   0.624  52.663  1.00  0.00    +0.030 A 
ATOM      8  C   UNL     1      21.967  -0.622  54.598  1.00  0.00    +0.002 A 
ATOM      9  C   UNL     1      21.416   0.371  53.782  1.00  0.00    +0.027 A 
ATOM     10  C   UNL     1      25.530  -0.766  53.301  1.00  0.00    +0.044 C 
ENDBRANCH   3   4
BRANCH   3  11
ATOM     11  C   UNL     1      22.392   2.427  50.821  1.00  0.00    +0.120 A 
ATOM     12  N   UNL     1      23.319   3.442  50.957  1.00  0.00    -0.345 N 
ATOM     13  C   UNL     1      22.414   2.035  49.487  1.00  0.00    -0.008 A 
ATOM     14  C   UNL     1      23.892   3.741  49.749  1.00  0.00    +0.014 A 
ATOM     15  C   UNL     1      23.352   2.880  48.821  1.00  0.00    +0.028 A 
ATOM     16  H   UNL     1      23.505   3.921  51.827  1.00  0.00    +0.168 HD
ATOM     17  C   UNL     1      21.677   0.923  48.827  1.00  0.00    +0.048 C 
ATOM     18  C   UNL     1      24.904   4.815  49.610  1.00  0.00    +0.064 C 
ENDBRANCH   3  11
ENDBRANCH   1   3
BRANCH   1  19
ATOM     19  C   UNL     1      19.209   1.825  51.259  1.00  0.00    +0.041 A 
ATOM     20  C   UNL     1      18.648   2.587  50.221  1.00  0.00    +0.017 A 
ATOM     21  C   UNL     1      18.806   0.496  51.433  1.00  0.00    +0.017 A 
ATOM     22  C   UNL     1      17.659   2.042  49.399  1.00  0.00    +0.047 A 
ATOM     23  C   UNL     1      17.815  -0.047  50.612  1.00  0.00    +0.047 A 
ATOM     24  C   UNL     1      17.248   0.729  49.607  1.00  0.00    +0.115 A 
BRANCH  24  25
ATOM     25  O   UNL     1      16.287   0.155  48.829  1.00  0.00    -0.508 OA
ATOM     26  H   UNL     1      15.571  -0.165  49.403  1.00  0.00    +0.293 HD
ENDBRANCH  24  25
ENDBRANCH   1  19
TORSDOF 5
ENDMDL
MODEL 9
REMARK VINA RESULT:    -7.520      2.343      5.781
REMARK INTER + INTRA:         -10.378
REMARK INTER:                  -9.465
REMARK INTRA:                  -0.914
REMARK UNBOUND:                -0.880
REMARK SMILES Cc1cccc(N(C(=O)c2ccc(O)cc2)c2[nH]c(C)cc2C)c1
REMARK SMILES IDX 8 1 9 2 7 3 6 4 2 5 3 6 24 7 4 8 5 9 1 10 17 11 18 12 22 13
REMARK SMILES IDX 19 14 21 15 23 17 20 18 10 19 11 20 16 21 12 22 15 23 13 24
REMARK SMILES IDX 14 25
REMARK H PARENT 18 16 14 26
ROOT
ATOM      1  C   UNL     1      24.154  -0.324  53.934  1.00  0.00    +0.263 C 
ATOM      2  O   UNL     1      24.394  -1.075  54.885  1.00  0.00    -0.268 OA
ENDROOT
BRANCH   1   3
ATOM      3  N   UNL     1      25.127   0.445  53.264  1.00  0.00    -0.262 N 
BRANCH   3   4
ATOM      4  C   UNL     1      24.780   1.721  52.689  1.00  0.00    +0.051 A 
ATOM      5  C   UNL     1      24.643   3.190  50.728  1.00  0.00    -0.049 A 
ATOM      6  C   UNL     1      24.157   4.222  51.533  1.00  0.00    +0.003 A 
ATOM      7  C   UNL     1      24.958   1.953  51.314  1.00  0.00    +0.030 A 
ATOM      8  C   UNL     1      23.955   4.011  52.894  1.00  0.00    +0.002 A 
ATOM      9  C   UNL     1      24.259   2.772  53.465  1.00  0.00    +0.027 A 
ATOM     10  C   UNL     1      24.878   3.411  49.263  1.00  0.00    +0.044 C 
ENDBRANCH   3   4
BRANCH   3  11
ATOM     11  C   UNL     1      26.478   0.071  53.269  1.00  0.00    +0.120 A 
ATOM     12  N   UNL     1      26.841  -1.251  53.106  1.00  0.00    -0.345 N 
ATOM     13  C   UNL     1      27.651   0.795  53.448  1.00  0.00    -0.008 A 
ATOM     14  C   UNL     1      28.197  -1.400  53.224  1.00  0.00    +0.014 A 
ATOM     15  C   UNL     1      28.725  -0.146  53.432  1.00  0.00    +0.028 A 
ATOM     16  H   UNL     1      26.180  -2.003  52.964  1.00  0.00    +0.168 HD
ATOM     17  C   UNL     1      27.833   2.266  53.578  1.00  0.00    +0.048 C 
ATOM     18  C   UNL     1      28.849  -2.727  53.118  1.00  0.00    +0.064 C 
ENDBRANCH   3  11
ENDBRANCH   1   3
BRANCH   1  19
ATOM     19  C   UNL     1      22.715  -0.191  53.557  1.00  0.00    +0.041 A 
ATOM     20  C   UNL     1      22.381  -0.191  52.193  1.00  0.00    +0.017 A 
ATOM     21  C   UNL     1      21.695  -0.159  54.516  1.00  0.00    +0.017 A 
ATOM     22  C   UNL     1      21.044  -0.109  51.793  1.00  0.00    +0.047 A 
ATOM     23  C   UNL     1      20.360  -0.074  54.114  1.00  0.00    +0.047 A 
ATOM     24  C   UNL     1      20.046  -0.045  52.759  1.00  0.00    +0.115 A 
BRANCH  24  25
ATOM     25  O   UNL     1      18.730   0.035  52.416  1.00  0.00    -0.508 OA
ATOM     26  H   UNL     1      18.325   0.772  52.903  1.00  0.00    +0.293 HD
ENDBRANCH  24  25
ENDBRANCH   1  19
TORSDOF 5
ENDMDL
