MODEL 1
REMARK VINA RESULT:    -9.350      0.000      0.000
REMARK INTER + INTRA:         -12.075
REMARK INTER:                 -10.989
REMARK INTRA:                  -1.086
REMARK UNBOUND:                -1.086
REMARK SMILES Cc1cccc(C=C2C(=O)N(C)c3ncnc(Nc4cccc(C)c4)c32)c1
REMARK SMILES IDX 7 1 8 2 9 3 10 4 11 5 12 6 13 7 14 8 15 9 16 10 17 11 26 12
REMARK SMILES IDX 6 13 2 14 3 15 27 16 4 17 5 18 1 19 18 20 19 22 20 23 25 24
REMARK SMILES IDX 21 25 23 26 22 27 24 28
REMARK H PARENT 18 21
ROOT
ATOM      1  C   UNL     1      25.345   0.747  52.077  1.00  0.00    +0.023 C 
ATOM      2  C   UNL     1      24.173   0.394  52.632  1.00  0.00    +0.055 C 
ATOM      3  C   UNL     1      23.973  -0.384  53.911  1.00  0.00    +0.260 C 
ATOM      4  O   UNL     1      24.819  -0.743  54.707  1.00  0.00    -0.269 OA
ATOM      5  N   UNL     1      22.606  -0.600  53.980  1.00  0.00    -0.295 N 
ATOM      6  C   UNL     1      21.924  -1.316  55.023  1.00  0.00    +0.155 C 
ATOM      7  C   UNL     1      21.936  -0.022  52.898  1.00  0.00    +0.148 A 
ATOM      8  N   UNL     1      20.613  -0.076  52.724  1.00  0.00    -0.218 NA
ATOM      9  C   UNL     1      20.197   0.563  51.627  1.00  0.00    +0.226 A 
ATOM     10  N   UNL     1      20.972   1.233  50.753  1.00  0.00    -0.218 NA
ATOM     11  C   UNL     1      22.303   1.278  50.978  1.00  0.00    +0.144 A 
ATOM     12  C   UNL     1      22.836   0.617  52.063  1.00  0.00    +0.073 A 
ENDROOT
BRANCH   1  13
ATOM     13  C   UNL     1      26.689   0.514  52.619  1.00  0.00    -0.025 A 
ATOM     14  C   UNL     1      28.536  -0.969  53.186  1.00  0.00    -0.051 A 
ATOM     15  C   UNL     1      29.207   0.107  53.778  1.00  0.00    +0.003 A 
ATOM     16  C   UNL     1      27.268  -0.760  52.626  1.00  0.00    +0.011 A 
ATOM     17  C   UNL     1      28.630   1.377  53.787  1.00  0.00    +0.001 A 
ATOM     18  C   UNL     1      27.375   1.580  53.211  1.00  0.00    +0.008 A 
ATOM     19  C   UNL     1      29.144  -2.341  53.195  1.00  0.00    +0.044 C 
ENDBRANCH   1  13
BRANCH  11  20
ATOM     20  N   UNL     1      23.144   2.021  50.119  1.00  0.00    -0.340 N 
ATOM     21  H   UNL     1      23.823   1.397  49.695  1.00  0.00    +0.168 HD
BRANCH  20  22
ATOM     22  C   UNL     1      23.695   3.308  50.318  1.00  0.00    +0.040 A 
ATOM     23  C   UNL     1      23.057   4.298  51.073  1.00  0.00    +0.026 A 
ATOM     24  C   UNL     1      24.863   3.661  49.622  1.00  0.00    +0.029 A 
ATOM     25  C   UNL     1      23.598   5.582  51.179  1.00  0.00    +0.002 A 
ATOM     26  C   UNL     1      25.426   4.943  49.732  1.00  0.00    -0.049 A 
ATOM     27  C   UNL     1      24.778   5.903  50.514  1.00  0.00    +0.003 A 
ATOM     28  C   UNL     1      26.668   5.295  48.968  1.00  0.00    +0.044 C 
ENDBRANCH  20  22
ENDBRANCH  11  20
TORSDOF 3
ENDMDL
MODEL 2
REMARK VINA RESULT:    -9.139      1.956      5.894
REMARK INTER + INTRA:         -11.827
REMARK INTER:                 -10.638
REMARK INTRA:                  -1.189
REMARK UNBOUND:                -1.086
REMARK SMILES Cc1cccc(C=C2C(=O)N(C)c3ncnc(Nc4cccc(C)c4)c32)c1
REMARK SMILES IDX 7 1 8 2 9 3 10 4 11 5 12 6 13 7 14 8 15 9 16 10 17 11 26 12
REMARK SMILES IDX 6 13 2 14 3 15 27 16 4 17 5 18 1 19 18 20 19 22 20 23 25 24
REMARK SMILES IDX 21 25 23 26 22 27 24 28
REMARK H PARENT 18 21
ROOT
ATOM      1  C   UNL     1      24.908   3.170  51.069  1.00  0.00    +0.023 C 
ATOM      2  C   UNL     1      23.804   2.492  50.713  1.00  0.00    +0.055 C 
ATOM      3  C   UNL     1      22.995   2.674  49.451  1.00  0.00    +0.260 C 
ATOM      4  O   UNL     1      23.245   3.390  48.500  1.00  0.00    -0.269 OA
ATOM      5  N   UNL     1      21.897   1.844  49.615  1.00  0.00    -0.295 N 
ATOM      6  C   UNL     1      20.823   1.681  48.674  1.00  0.00    +0.155 C 
ATOM      7  C   UNL     1      21.950   1.150  50.827  1.00  0.00    +0.148 A 
ATOM      8  N   UNL     1      21.022   0.280  51.231  1.00  0.00    -0.218 NA
ATOM      9  C   UNL     1      21.293  -0.274  52.416  1.00  0.00    +0.226 A 
ATOM     10  N   UNL     1      22.383  -0.041  53.172  1.00  0.00    -0.218 NA
ATOM     11  C   UNL     1      23.306   0.833  52.717  1.00  0.00    +0.144 A 
ATOM     12  C   UNL     1      23.100   1.486  51.521  1.00  0.00    +0.073 A 
ENDROOT
BRANCH   1  13
ATOM     13  C   UNL     1      25.612   4.192  50.286  1.00  0.00    -0.025 A 
ATOM     14  C   UNL     1      25.839   6.475  49.466  1.00  0.00    -0.051 A 
ATOM     15  C   UNL     1      26.922   6.073  48.676  1.00  0.00    +0.003 A 
ATOM     16  C   UNL     1      25.177   5.522  50.253  1.00  0.00    +0.011 A 
ATOM     17  C   UNL     1      27.353   4.747  48.692  1.00  0.00    +0.001 A 
ATOM     18  C   UNL     1      26.700   3.809  49.493  1.00  0.00    +0.008 A 
ATOM     19  C   UNL     1      25.359   7.896  49.432  1.00  0.00    +0.044 C 
ENDBRANCH   1  13
BRANCH  11  20
ATOM     20  N   UNL     1      24.493   1.058  53.451  1.00  0.00    -0.340 N 
ATOM     21  H   UNL     1      24.604   2.056  53.607  1.00  0.00    +0.168 HD
BRANCH  20  22
ATOM     22  C   UNL     1      25.750   0.424  53.316  1.00  0.00    +0.040 A 
ATOM     23  C   UNL     1      25.893  -0.880  52.835  1.00  0.00    +0.026 A 
ATOM     24  C   UNL     1      26.894   1.075  53.808  1.00  0.00    +0.029 A 
ATOM     25  C   UNL     1      27.146  -1.498  52.791  1.00  0.00    +0.002 A 
ATOM     26  C   UNL     1      28.162   0.472  53.756  1.00  0.00    -0.049 A 
ATOM     27  C   UNL     1      28.276  -0.825  53.247  1.00  0.00    +0.003 A 
ATOM     28  C   UNL     1      29.364   1.184  54.300  1.00  0.00    +0.044 C 
ENDBRANCH  20  22
ENDBRANCH  11  20
TORSDOF 3
ENDMDL
MODEL 3
REMARK VINA RESULT:    -8.587      2.234      6.810
REMARK INTER + INTRA:         -11.178
REMARK INTER:                 -10.087
REMARK INTRA:                  -1.091
REMARK UNBOUND:                -1.086
REMARK SMILES Cc1cccc(C=C2C(=O)N(C)c3ncnc(Nc4cccc(C)c4)c32)c1
REMARK SMILES IDX 7 1 8 2 9 3 10 4 11 5 12 6 13 7 14 8 15 9 16 10 17 11 26 12
REMARK SMILES IDX 6 13 2 14 3 15 27 16 4 17 5 18 1 19 18 20 19 22 20 23 25 24
REMARK SMILES IDX 21 25 23 26 22 27 24 28
REMARK H PARENT 18 21
ROOT
ATOM      1  C   UNL     1      22.492   1.722  51.684  1.00  0.00    +0.023 C 
ATOM      2  C   UNL     1      23.403   1.069  52.424  1.00  0.00    +0.055 C 
ATOM      3  C   UNL     1      24.897   1.032  52.200  1.00  0.00    +0.260 C 
ATOM      4  O   UNL     1      25.544   1.654  51.379  1.00  0.00    -0.269 OA
ATOM      5  N   UNL     1      25.371   0.130  53.138  1.00  0.00    -0.295 N 
ATOM      6  C   UNL     1      26.744  -0.254  53.311  1.00  0.00    +0.155 C 
ATOM      7  C   UNL     1      24.339  -0.378  53.935  1.00  0.00    +0.148 A 
ATOM      8  N   UNL     1      24.521  -1.260  54.920  1.00  0.00    -0.218 NA
ATOM      9  C   UNL     1      23.392  -1.587  55.554  1.00  0.00    +0.226 A 
ATOM     10  N   UNL     1      22.163  -1.101  55.294  1.00  0.00    -0.218 NA
ATOM     11  C   UNL     1      22.027  -0.196  54.300  1.00  0.00    +0.144 A 
ATOM     12  C   UNL     1      23.128   0.179  53.561  1.00  0.00    +0.073 A 
ENDROOT
BRANCH   1  13
ATOM     13  C   UNL     1      22.746   2.597  50.533  1.00  0.00    -0.025 A 
ATOM     14  C   UNL     1      23.321   4.765  49.584  1.00  0.00    -0.051 A 
ATOM     15  C   UNL     1      23.095   4.254  48.301  1.00  0.00    +0.003 A 
ATOM     16  C   UNL     1      23.125   3.935  50.696  1.00  0.00    +0.011 A 
ATOM     17  C   UNL     1      22.703   2.926  48.131  1.00  0.00    +0.001 A 
ATOM     18  C   UNL     1      22.528   2.101  49.242  1.00  0.00    +0.008 A 
ATOM     19  C   UNL     1      23.720   6.200  49.771  1.00  0.00    +0.044 C 
ENDBRANCH   1  13
BRANCH  11  20
ATOM     20  N   UNL     1      20.766   0.384  54.036  1.00  0.00    -0.340 N 
ATOM     21  H   UNL     1      20.442   0.868  54.868  1.00  0.00    +0.168 HD
BRANCH  20  22
ATOM     22  C   UNL     1      19.680  -0.154  53.308  1.00  0.00    +0.040 A 
ATOM     23  C   UNL     1      19.083   0.513  52.234  1.00  0.00    +0.026 A 
ATOM     24  C   UNL     1      19.084  -1.343  53.759  1.00  0.00    +0.029 A 
ATOM     25  C   UNL     1      17.962  -0.018  51.591  1.00  0.00    +0.002 A 
ATOM     26  C   UNL     1      17.966  -1.896  53.113  1.00  0.00    -0.049 A 
ATOM     27  C   UNL     1      17.406  -1.218  52.026  1.00  0.00    +0.003 A 
ATOM     28  C   UNL     1      17.342  -3.161  53.623  1.00  0.00    +0.044 C 
ENDBRANCH  20  22
ENDBRANCH  11  20
TORSDOF 3
ENDMDL
MODEL 4
REMARK VINA RESULT:    -8.584      2.517      6.414
REMARK INTER + INTRA:         -11.175
REMARK INTER:                 -10.180
REMARK INTRA:                  -0.995
REMARK UNBOUND:                -1.086
REMARK SMILES Cc1cccc(C=C2C(=O)N(C)c3ncnc(Nc4cccc(C)c4)c32)c1
REMARK SMILES IDX 7 1 8 2 9 3 10 4 11 5 12 6 13 7 14 8 15 9 16 10 17 11 26 12
REMARK SMILES IDX 6 13 2 14 3 15 27 16 4 17 5 18 1 19 18 20 19 22 20 23 25 24
REMARK SMILES IDX 21 25 23 26 22 27 24 28
REMARK H PARENT 18 21
ROOT
ATOM      1  C   UNL     1      23.320   1.732  51.621  1.00  0.00    +0.023 C 
ATOM      2  C   UNL     1      23.342   3.061  51.432  1.00  0.00    +0.055 C 
ATOM      3  C   UNL     1      22.250   4.046  51.783  1.00  0.00    +0.260 C 
ATOM      4  O   UNL     1      21.211   3.828  52.376  1.00  0.00    -0.269 OA
ATOM      5  N   UNL     1      22.693   5.257  51.277  1.00  0.00    -0.295 N 
ATOM      6  C   UNL     1      21.985   6.505  51.352  1.00  0.00    +0.155 C 
ATOM      7  C   UNL     1      23.949   5.137  50.673  1.00  0.00    +0.148 A 
ATOM      8  N   UNL     1      24.608   6.153  50.112  1.00  0.00    -0.218 NA
ATOM      9  C   UNL     1      25.797   5.803  49.614  1.00  0.00    +0.226 A 
ATOM     10  N   UNL     1      26.349   4.574  49.658  1.00  0.00    -0.218 NA
ATOM     11  C   UNL     1      25.655   3.579  50.252  1.00  0.00    +0.144 A 
ATOM     12  C   UNL     1      24.400   3.831  50.763  1.00  0.00    +0.073 A 
ENDROOT
BRANCH   1  13
ATOM     13  C   UNL     1      22.263   0.944  52.267  1.00  0.00    -0.025 A 
ATOM     14  C   UNL     1      20.001   0.041  52.320  1.00  0.00    -0.051 A 
ATOM     15  C   UNL     1      20.243  -0.464  53.602  1.00  0.00    +0.003 A 
ATOM     16  C   UNL     1      21.011   0.762  51.667  1.00  0.00    +0.011 A 
ATOM     17  C   UNL     1      21.482  -0.275  54.212  1.00  0.00    +0.001 A 
ATOM     18  C   UNL     1      22.489   0.428  53.548  1.00  0.00    +0.008 A 
ATOM     19  C   UNL     1      18.661  -0.141  51.670  1.00  0.00    +0.044 C 
ENDBRANCH   1  13
BRANCH  11  20
ATOM     20  N   UNL     1      26.224   2.291  50.373  1.00  0.00    -0.340 N 
ATOM     21  H   UNL     1      25.715   1.646  49.777  1.00  0.00    +0.168 HD
BRANCH  20  22
ATOM     22  C   UNL     1      26.699   1.641  51.535  1.00  0.00    +0.040 A 
ATOM     23  C   UNL     1      27.397   2.308  52.546  1.00  0.00    +0.026 A 
ATOM     24  C   UNL     1      26.588   0.243  51.623  1.00  0.00    +0.029 A 
ATOM     25  C   UNL     1      27.919   1.613  53.641  1.00  0.00    +0.002 A 
ATOM     26  C   UNL     1      27.094  -0.467  52.725  1.00  0.00    -0.049 A 
ATOM     27  C   UNL     1      27.766   0.232  53.731  1.00  0.00    +0.003 A 
ATOM     28  C   UNL     1      26.972  -1.960  52.787  1.00  0.00    +0.044 C 
ENDBRANCH  20  22
ENDBRANCH  11  20
TORSDOF 3
ENDMDL
MODEL 5
REMARK VINA RESULT:    -8.387      2.176      6.255
REMARK INTER + INTRA:         -10.944
REMARK INTER:                 -10.205
REMARK INTRA:                  -0.738
REMARK UNBOUND:                -1.086
REMARK SMILES Cc1cccc(C=C2C(=O)N(C)c3ncnc(Nc4cccc(C)c4)c32)c1
REMARK SMILES IDX 7 1 8 2 9 3 10 4 11 5 12 6 13 7 14 8 15 9 16 10 17 11 26 12
REMARK SMILES IDX 6 13 2 14 3 15 27 16 4 17 5 18 1 19 18 20 19 22 20 23 25 24
REMARK SMILES IDX 21 25 23 26 22 27 24 28
REMARK H PARENT 18 21
ROOT
ATOM      1  C   UNL     1      23.274   2.148  51.423  1.00  0.00    +0.023 C 
ATOM      2  C   UNL     1      22.598   1.247  52.153  1.00  0.00    +0.055 C 
ATOM      3  C   UNL     1      21.107   0.999  52.135  1.00  0.00    +0.260 C 
ATOM      4  O   UNL     1      20.277   1.497  51.399  1.00  0.00    -0.269 OA
ATOM      5  N   UNL     1      20.892   0.077  53.146  1.00  0.00    -0.295 N 
ATOM      6  C   UNL     1      19.617  -0.464  53.527  1.00  0.00    +0.155 C 
ATOM      7  C   UNL     1      22.086  -0.292  53.773  1.00  0.00    +0.148 A 
ATOM      8  N   UNL     1      22.164  -1.170  54.775  1.00  0.00    -0.218 NA
ATOM      9  C   UNL     1      23.412  -1.378  55.203  1.00  0.00    +0.226 A 
ATOM     10  N   UNL     1      24.529  -0.811  54.707  1.00  0.00    -0.218 NA
ATOM     11  C   UNL     1      24.406   0.058  53.680  1.00  0.00    +0.144 A 
ATOM     12  C   UNL     1      23.155   0.369  53.192  1.00  0.00    +0.073 A 
ENDROOT
BRANCH   1  13
ATOM     13  C   UNL     1      22.732   3.048  50.398  1.00  0.00    -0.025 A 
ATOM     14  C   UNL     1      22.151   3.549  48.086  1.00  0.00    -0.051 A 
ATOM     15  C   UNL     1      21.806   4.851  48.465  1.00  0.00    +0.003 A 
ATOM     16  C   UNL     1      22.632   2.660  49.057  1.00  0.00    +0.011 A 
ATOM     17  C   UNL     1      21.915   5.250  49.797  1.00  0.00    +0.001 A 
ATOM     18  C   UNL     1      22.378   4.353  50.760  1.00  0.00    +0.008 A 
ATOM     19  C   UNL     1      22.056   3.124  46.650  1.00  0.00    +0.044 C 
ENDBRANCH   1  13
BRANCH  11  20
ATOM     20  N   UNL     1      25.557   0.628  53.091  1.00  0.00    -0.340 N 
ATOM     21  H   UNL     1      25.438   0.652  52.083  1.00  0.00    +0.168 HD
BRANCH  20  22
ATOM     22  C   UNL     1      26.915   0.433  53.435  1.00  0.00    +0.040 A 
ATOM     23  C   UNL     1      27.746   1.475  53.857  1.00  0.00    +0.026 A 
ATOM     24  C   UNL     1      27.496  -0.827  53.220  1.00  0.00    +0.029 A 
ATOM     25  C   UNL     1      29.103   1.255  54.113  1.00  0.00    +0.002 A 
ATOM     26  C   UNL     1      28.854  -1.067  53.487  1.00  0.00    -0.049 A 
ATOM     27  C   UNL     1      29.654  -0.010  53.931  1.00  0.00    +0.003 A 
ATOM     28  C   UNL     1      29.450  -2.420  53.236  1.00  0.00    +0.044 C 
ENDBRANCH  20  22
ENDBRANCH  11  20
TORSDOF 3
ENDMDL
MODEL 6
REMARK VINA RESULT:    -7.916      2.057      5.911
REMARK INTER + INTRA:         -10.390
REMARK INTER:                  -9.493
REMARK INTRA:                  -0.897
REMARK UNBOUND:                -1.086
REMARK SMILES Cc1cccc(C=C2C(=O)N(C)c3ncnc(Nc4cccc(C)c4)c32)c1
REMARK SMILES IDX 7 1 8 2 9 3 10 4 11 5 12 6 13 7 14 8 15 9 16 10 17 11 26 12
REMARK SMILES IDX 6 13 2 14 3 15 27 16 4 17 5 18 1 19 18 20 19 22 20 23 25 24
REMARK SMILES IDX 21 25 23 26 22 27 24 28
REMARK H PARENT 18 21
ROOT
ATOM      1  C   UNL     1      21.160   1.632  51.359  1.00  0.00    +0.023 C 
ATOM      2  C   UNL     1      21.871   0.871  52.207  1.00  0.00    +0.055 C 
ATOM      3  C   UNL     1      21.327  -0.038  53.284  1.00  0.00    +0.260 C 
ATOM      4  O   UNL     1      20.165  -0.314  53.512  1.00  0.00    -0.269 OA
ATOM      5  N   UNL     1      22.448  -0.490  53.961  1.00  0.00    -0.295 N 
ATOM      6  C   UNL     1      22.443  -1.381  55.089  1.00  0.00    +0.155 C 
ATOM      7  C   UNL     1      23.627   0.018  53.407  1.00  0.00    +0.148 A 
ATOM      8  N   UNL     1      24.849  -0.264  53.863  1.00  0.00    -0.218 NA
ATOM      9  C   UNL     1      25.825   0.323  53.165  1.00  0.00    +0.226 A 
ATOM     10  N   UNL     1      25.667   1.115  52.086  1.00  0.00    -0.218 NA
ATOM     11  C   UNL     1      24.413   1.360  51.647  1.00  0.00    +0.144 A 
ATOM     12  C   UNL     1      23.335   0.830  52.324  1.00  0.00    +0.073 A 
ENDROOT
BRANCH   1  13
ATOM     13  C   UNL     1      19.698   1.703  51.243  1.00  0.00    -0.025 A 
ATOM     14  C   UNL     1      17.572   0.814  50.453  1.00  0.00    -0.051 A 
ATOM     15  C   UNL     1      16.924   1.954  50.942  1.00  0.00    +0.003 A 
ATOM     16  C   UNL     1      18.963   0.706  50.591  1.00  0.00    +0.011 A 
ATOM     17  C   UNL     1      17.651   2.959  51.580  1.00  0.00    +0.001 A 
ATOM     18  C   UNL     1      19.033   2.835  51.729  1.00  0.00    +0.008 A 
ATOM     19  C   UNL     1      16.796  -0.258  49.746  1.00  0.00    +0.044 C 
ENDBRANCH   1  13
BRANCH  11  20
ATOM     20  N   UNL     1      24.207   2.134  50.483  1.00  0.00    -0.340 N 
ATOM     21  H   UNL     1      24.275   1.534  49.668  1.00  0.00    +0.168 HD
BRANCH  20  22
ATOM     22  C   UNL     1      24.675   3.437  50.194  1.00  0.00    +0.040 A 
ATOM     23  C   UNL     1      23.884   4.579  50.352  1.00  0.00    +0.026 A 
ATOM     24  C   UNL     1      25.937   3.587  49.597  1.00  0.00    +0.029 A 
ATOM     25  C   UNL     1      24.358   5.840  49.980  1.00  0.00    +0.002 A 
ATOM     26  C   UNL     1      26.433   4.850  49.232  1.00  0.00    -0.049 A 
ATOM     27  C   UNL     1      25.628   5.976  49.424  1.00  0.00    +0.003 A 
ATOM     28  C   UNL     1      27.779   4.979  48.585  1.00  0.00    +0.044 C 
ENDBRANCH  20  22
ENDBRANCH  11  20
TORSDOF 3
ENDMDL
MODEL 7
REMARK VINA RESULT:    -7.768      1.779      2.149
REMARK INTER + INTRA:         -10.216
REMARK INTER:                  -9.038
REMARK INTRA:                  -1.178
REMARK UNBOUND:                -1.086
REMARK SMILES Cc1cccc(C=C2C(=O)N(C)c3ncnc(Nc4cccc(C)c4)c32)c1
REMARK SMILES IDX 7 1 8 2 9 3 10 4 11 5 12 6 13 7 14 8 15 9 16 10 17 11 26 12
REMARK SMILES IDX 6 13 2 14 3 15 27 16 4 17 5 18 1 19 18 20 19 22 20 23 25 24
REMARK SMILES IDX 21 25 23 26 22 27 24 28
REMARK H PARENT 18 21
ROOT
ATOM      1  C   UNL     1      23.806   1.400  51.520  1.00  0.00    +0.023 C 
ATOM      2  C   UNL     1      22.576   0.962  51.833  1.00  0.00    +0.055 C 
ATOM      3  C   UNL     1      22.183   0.148  53.044  1.00  0.00    +0.260 C 
ATOM      4  O   UNL     1      22.881  -0.172  53.987  1.00  0.00    -0.269 OA
ATOM      5  N   UNL     1      20.847  -0.158  52.843  1.00  0.00    -0.295 N 
ATOM      6  C   UNL     1      20.024  -0.936  53.728  1.00  0.00    +0.155 C 
ATOM      7  C   UNL     1      20.362   0.397  51.655  1.00  0.00    +0.148 A 
ATOM      8  N   UNL     1      19.106   0.262  51.225  1.00  0.00    -0.218 NA
ATOM      9  C   UNL     1      18.868   0.893  50.073  1.00  0.00    +0.226 A 
ATOM     10  N   UNL     1      19.752   1.629  49.371  1.00  0.00    -0.218 NA
ATOM     11  C   UNL     1      21.008   1.755  49.852  1.00  0.00    +0.144 A 
ATOM     12  C   UNL     1      21.363   1.109  51.016  1.00  0.00    +0.073 A 
ENDROOT
BRANCH   1  13
ATOM     13  C   UNL     1      25.032   1.244  52.312  1.00  0.00    -0.025 A 
ATOM     14  C   UNL     1      26.969  -0.055  53.017  1.00  0.00    -0.051 A 
ATOM     15  C   UNL     1      27.294   0.948  53.938  1.00  0.00    +0.003 A 
ATOM     16  C   UNL     1      25.824   0.093  52.222  1.00  0.00    +0.011 A 
ATOM     17  C   UNL     1      26.502   2.091  54.044  1.00  0.00    +0.001 A 
ATOM     18  C   UNL     1      25.375   2.239  53.235  1.00  0.00    +0.008 A 
ATOM     19  C   UNL     1      27.806  -1.297  52.918  1.00  0.00    +0.044 C 
ENDBRANCH   1  13
BRANCH  11  20
ATOM     20  N   UNL     1      21.947   2.568  49.178  1.00  0.00    -0.340 N 
ATOM     21  H   UNL     1      22.802   2.038  49.033  1.00  0.00    +0.168 HD
BRANCH  20  22
ATOM     22  C   UNL     1      22.228   3.940  49.371  1.00  0.00    +0.040 A 
ATOM     23  C   UNL     1      21.946   4.611  50.564  1.00  0.00    +0.026 A 
ATOM     24  C   UNL     1      22.685   4.699  48.280  1.00  0.00    +0.029 A 
ATOM     25  C   UNL     1      22.167   5.986  50.687  1.00  0.00    +0.002 A 
ATOM     26  C   UNL     1      22.926   6.078  48.393  1.00  0.00    -0.049 A 
ATOM     27  C   UNL     1      22.656   6.716  49.607  1.00  0.00    +0.003 A 
ATOM     28  C   UNL     1      23.401   6.865  47.209  1.00  0.00    +0.044 C 
ENDBRANCH  20  22
ENDBRANCH  11  20
TORSDOF 3
ENDMDL
MODEL 8
REMARK VINA RESULT:    -7.621      2.397      5.955
REMARK INTER + INTRA:         -10.043
REMARK INTER:                  -9.048
REMARK INTRA:                  -0.995
REMARK UNBOUND:                -1.086
REMARK SMILES Cc1cccc(C=C2C(=O)N(C)c3ncnc(Nc4cccc(C)c4)c32)c1
REMARK SMILES IDX 7 1 8 2 9 3 10 4 11 5 12 6 13 7 14 8 15 9 16 10 17 11 26 12
REMARK SMILES IDX 6 13 2 14 3 15 27 16 4 17 5 18 1 19 18 20 19 22 20 23 25 24
REMARK SMILES IDX 21 25 23 26 22 27 24 28
REMARK H PARENT 18 21
ROOT
ATOM      1  C   UNL     1      22.422   2.476  52.015  1.00  0.00    +0.023 C 
ATOM      2  C   UNL     1      21.411   1.592  52.032  1.00  0.00    +0.055 C 
ATOM      3  C   UNL     1      20.173   1.612  51.167  1.00  0.00    +0.260 C 
ATOM      4  O   UNL     1      19.916   2.366  50.249  1.00  0.00    -0.269 OA
ATOM      5  N   UNL     1      19.388   0.578  51.653  1.00  0.00    -0.295 N 
ATOM      6  C   UNL     1      18.092   0.206  51.156  1.00  0.00    +0.155 C 
ATOM      7  C   UNL     1      20.014  -0.095  52.707  1.00  0.00    +0.148 A 
ATOM      8  N   UNL     1      19.480  -1.135  53.351  1.00  0.00    -0.218 NA
ATOM      9  C   UNL     1      20.268  -1.626  54.311  1.00  0.00    +0.226 A 
ATOM     10  N   UNL     1      21.498  -1.182  54.636  1.00  0.00    -0.218 NA
ATOM     11  C   UNL     1      22.008  -0.139  53.946  1.00  0.00    +0.144 A 
ATOM     12  C   UNL     1      21.255   0.463  52.960  1.00  0.00    +0.073 A 
ENDROOT
BRANCH   1  13
ATOM     13  C   UNL     1      22.583   3.621  51.111  1.00  0.00    -0.025 A 
ATOM     14  C   UNL     1      22.155   5.942  50.505  1.00  0.00    -0.051 A 
ATOM     15  C   UNL     1      22.819   5.737  49.290  1.00  0.00    +0.003 A 
ATOM     16  C   UNL     1      22.025   4.872  51.401  1.00  0.00    +0.011 A 
ATOM     17  C   UNL     1      23.366   4.491  48.987  1.00  0.00    +0.001 A 
ATOM     18  C   UNL     1      23.248   3.436  49.893  1.00  0.00    +0.008 A 
ATOM     19  C   UNL     1      21.545   7.275  50.823  1.00  0.00    +0.044 C 
ENDBRANCH   1  13
BRANCH  11  20
ATOM     20  N   UNL     1      23.318   0.317  54.215  1.00  0.00    -0.340 N 
ATOM     21  H   UNL     1      23.272   1.260  54.590  1.00  0.00    +0.168 HD
BRANCH  20  22
ATOM     22  C   UNL     1      24.492   0.135  53.448  1.00  0.00    +0.040 A 
ATOM     23  C   UNL     1      25.233  -1.051  53.468  1.00  0.00    +0.026 A 
ATOM     24  C   UNL     1      25.018   1.229  52.741  1.00  0.00    +0.029 A 
ATOM     25  C   UNL     1      26.431  -1.163  52.756  1.00  0.00    +0.002 A 
ATOM     26  C   UNL     1      26.212   1.126  52.010  1.00  0.00    -0.049 A 
ATOM     27  C   UNL     1      26.918  -0.080  52.029  1.00  0.00    +0.003 A 
ATOM     28  C   UNL     1      26.757   2.314  51.274  1.00  0.00    +0.044 C 
ENDBRANCH  20  22
ENDBRANCH  11  20
TORSDOF 3
ENDMDL
MODEL 9
REMARK VINA RESULT:    -7.279      2.498      7.170
REMARK INTER + INTRA:          -9.641
REMARK INTER:                  -8.813
REMARK INTRA:                  -0.828
REMARK UNBOUND:                -1.086
REMARK SMILES Cc1cccc(C=C2C(=O)N(C)c3ncnc(Nc4cccc(C)c4)c32)c1
REMARK SMILES IDX 7 1 8 2 9 3 10 4 11 5 12 6 13 7 14 8 15 9 16 10 17 11 26 12
REMARK SMILES IDX 6 13 2 14 3 15 27 16 4 17 5 18 1 19 18 20 19 22 20 23 25 24
REMARK SMILES IDX 21 25 23 26 22 27 24 28
REMARK H PARENT 18 21
ROOT
ATOM      1  C   UNL     1      22.349   3.127  50.593  1.00  0.00    +0.023 C 
ATOM      2  C   UNL     1      23.381   2.497  51.177  1.00  0.00    +0.055 C 
ATOM      3  C   UNL     1      24.849   2.692  50.879  1.00  0.00    +0.260 C 
ATOM      4  O   UNL     1      25.358   3.510  50.137  1.00  0.00    -0.269 OA
ATOM      5  N   UNL     1      25.493   1.729  51.639  1.00  0.00    -0.295 N 
ATOM      6  C   UNL     1      26.912   1.508  51.682  1.00  0.00    +0.155 C 
ATOM      7  C   UNL     1      24.588   0.975  52.393  1.00  0.00    +0.148 A 
ATOM      8  N   UNL     1      24.944  -0.013  53.217  1.00  0.00    -0.218 NA
ATOM      9  C   UNL     1      23.910  -0.579  53.844  1.00  0.00    +0.226 A 
ATOM     10  N   UNL     1      22.615  -0.226  53.724  1.00  0.00    -0.218 NA
ATOM     11  C   UNL     1      22.302   0.792  52.893  1.00  0.00    +0.144 A 
ATOM     12  C   UNL     1      23.295   1.417  52.170  1.00  0.00    +0.073 A 
ENDROOT
BRANCH   1  13
ATOM     13  C   UNL     1      22.414   4.192  49.585  1.00  0.00    -0.025 A 
ATOM     14  C   UNL     1      22.483   6.547  48.966  1.00  0.00    -0.051 A 
ATOM     15  C   UNL     1      22.411   6.184  47.616  1.00  0.00    +0.003 A 
ATOM     16  C   UNL     1      22.464   5.544  49.945  1.00  0.00    +0.011 A 
ATOM     17  C   UNL     1      22.346   4.841  47.250  1.00  0.00    +0.001 A 
ATOM     18  C   UNL     1      22.346   3.847  48.230  1.00  0.00    +0.008 A 
ATOM     19  C   UNL     1      22.530   7.993  49.364  1.00  0.00    +0.044 C 
ENDBRANCH   1  13
BRANCH  11  20
ATOM     20  N   UNL     1      20.964   1.234  52.785  1.00  0.00    -0.340 N 
ATOM     21  H   UNL     1      20.807   1.987  53.448  1.00  0.00    +0.168 HD
BRANCH  20  22
ATOM     22  C   UNL     1      19.790   0.465  52.606  1.00  0.00    +0.040 A 
ATOM     23  C   UNL     1      19.409  -0.551  53.487  1.00  0.00    +0.026 A 
ATOM     24  C   UNL     1      19.044   0.630  51.428  1.00  0.00    +0.029 A 
ATOM     25  C   UNL     1      18.284  -1.340  53.232  1.00  0.00    +0.002 A 
ATOM     26  C   UNL     1      17.903  -0.145  51.165  1.00  0.00    -0.049 A 
ATOM     27  C   UNL     1      17.533  -1.137  52.077  1.00  0.00    +0.003 A 
ATOM     28  C   UNL     1      17.132   0.045  49.893  1.00  0.00    +0.044 C 
ENDBRANCH  20  22
ENDBRANCH  11  20
TORSDOF 3
ENDMDL
