REMARK SMILES Cc1cccc(C=C2C(=O)N(C)c3ncnc(-c4ccc(O)cc4)c32)c1
REMARK SMILES IDX 7 1 8 2 9 3 10 4 11 5 12 6 13 7 14 8 15 9 16 10 17 11 25 12
REMARK SMILES IDX 6 13 2 14 3 15 26 16 4 17 5 18 1 19 18 20 19 21 24 22 20 23
REMARK SMILES IDX 23 24 21 25 22 26
REMARK H PARENT 22 27
ROOT
ATOM      1  C   UNL     1       0.489  -0.140  -0.062  1.00  0.00    +0.022 C 
ATOM      2  C   UNL     1      -0.129   1.024   0.196  1.00  0.00    +0.054 C 
ATOM      3  C   UNL     1       0.523   2.380   0.344  1.00  0.00    +0.260 C 
ATOM      4  O   UNL     1       1.699   2.662   0.217  1.00  0.00    -0.269 OA
ATOM      5  N   UNL     1      -0.518   3.237   0.660  1.00  0.00    -0.295 N 
ATOM      6  C   UNL     1      -0.397   4.649   0.897  1.00  0.00    +0.155 C 
ATOM      7  C   UNL     1      -1.746   2.569   0.698  1.00  0.00    +0.147 A 
ATOM      8  N   UNL     1      -2.911   3.164   0.972  1.00  0.00    -0.218 NA
ATOM      9  C   UNL     1      -3.959   2.334   0.947  1.00  0.00    +0.224 A 
ATOM     10  N   UNL     1      -3.924   1.017   0.671  1.00  0.00    -0.236 NA
ATOM     11  C   UNL     1      -2.714   0.470   0.387  1.00  0.00    +0.084 A 
ATOM     12  C   UNL     1      -1.568   1.227   0.406  1.00  0.00    +0.057 A 
ENDROOT
BRANCH   1  13
ATOM     13  C   UNL     1       1.927  -0.356  -0.257  1.00  0.00    -0.025 A 
ATOM     14  C   UNL     1       4.218  -0.360   0.573  1.00  0.00    -0.051 A 
ATOM     15  C   UNL     1       4.647  -0.901  -0.644  1.00  0.00    +0.003 A 
ATOM     16  C   UNL     1       2.852  -0.109   0.765  1.00  0.00    +0.011 A 
ATOM     17  C   UNL     1       3.730  -1.163  -1.662  1.00  0.00    +0.001 A 
ATOM     18  C   UNL     1       2.375  -0.894  -1.468  1.00  0.00    +0.008 A 
ATOM     19  C   UNL     1       5.197  -0.100   1.678  1.00  0.00    +0.044 C 
ENDBRANCH   1  13
BRANCH  11  20
ATOM     20  C   UNL     1      -2.762  -0.953   0.055  1.00  0.00    +0.001 A 
ATOM     21  C   UNL     1      -2.898  -1.920   1.065  1.00  0.00    +0.014 A 
ATOM     22  C   UNL     1      -2.687  -1.385  -1.281  1.00  0.00    +0.014 A 
ATOM     23  C   UNL     1      -2.935  -3.283   0.754  1.00  0.00    +0.047 A 
ATOM     24  C   UNL     1      -2.723  -2.745  -1.593  1.00  0.00    +0.047 A 
ATOM     25  C   UNL     1      -2.843  -3.682  -0.574  1.00  0.00    +0.115 A 
BRANCH  25  26
ATOM     26  O   UNL     1      -2.872  -4.999  -0.925  1.00  0.00    -0.508 OA
ATOM     27  H   UNL     1      -2.978  -5.533  -0.120  1.00  0.00    +0.293 HD
ENDBRANCH  25  26
ENDBRANCH  11  20
TORSDOF 3
