MODEL 1
REMARK VINA RESULT:    -6.632      0.000      0.000
REMARK INTER + INTRA:          -9.842
REMARK INTER:                  -9.152
REMARK INTRA:                  -0.690
REMARK UNBOUND:                -0.690
REMARK SMILES C[N+](C)(C)C[C@@H](O)COc1ccc(-c2ccc(F)c(Cl)c2)cn1
REMARK SMILES IDX 8 1 6 2 5 3 2 4 1 5 3 6 4 7 7 8 9 10 10 11 11 12 23 13 12 14
REMARK SMILES IDX 22 15 13 16 14 17 15 18 21 19 16 20 19 21 17 22 20 23 18 24
REMARK H PARENT 7 9
ROOT
ATOM      1  C   UNL     1      20.630   2.211  51.129  1.00  0.00    +0.269 C 
ENDROOT
BRANCH   1   2
ATOM      2  C   UNL     1      20.302   3.571  51.760  1.00  0.00    +0.206 C 
BRANCH   2   3
ATOM      3  C   UNL     1      20.668   4.702  50.776  1.00  0.00    +0.299 C 
BRANCH   3   4
ATOM      4  N   UNL     1      22.050   5.372  51.025  1.00  0.00    -0.329 N 
ATOM      5  C   UNL     1      21.971   6.891  50.873  1.00  0.00    +0.334 C 
ATOM      6  C   UNL     1      23.021   4.839  49.970  1.00  0.00    +0.334 C 
ATOM      7  C   UNL     1      22.594   5.031  52.403  1.00  0.00    +0.334 C 
ENDBRANCH   3   4
ENDBRANCH   2   3
BRANCH   2   8
ATOM      8  O   UNL     1      18.900   3.616  52.063  1.00  0.00    -0.384 OA
ATOM      9  H   UNL     1      18.562   2.703  51.956  1.00  0.00    +0.211 HD
ENDBRANCH   2   8
ENDBRANCH   1   2
BRANCH   1  10
ATOM     10  O   UNL     1      20.808   1.276  52.200  1.00  0.00    -0.475 OA
BRANCH  10  11
ATOM     11  C   UNL     1      22.134   0.939  52.395  1.00  0.00    +0.213 A 
ATOM     12  C   UNL     1      22.392  -0.054  53.322  1.00  0.00    +0.069 A 
ATOM     13  N   UNL     1      23.091   1.578  51.694  1.00  0.00    -0.221 NA
ATOM     14  C   UNL     1      23.719  -0.424  53.544  1.00  0.00    +0.016 A 
ATOM     15  C   UNL     1      24.370   1.193  51.932  1.00  0.00    +0.123 A 
ATOM     16  C   UNL     1      24.754   0.204  52.840  1.00  0.00    +0.000 A 
BRANCH  16  17
ATOM     17  C   UNL     1      26.164  -0.162  53.045  1.00  0.00    -0.015 A 
ATOM     18  C   UNL     1      26.642  -1.436  52.687  1.00  0.00    +0.012 A 
ATOM     19  C   UNL     1      27.073   0.755  53.604  1.00  0.00    +0.032 A 
ATOM     20  C   UNL     1      27.982  -1.782  52.882  1.00  0.00    +0.041 A 
ATOM     21  C   UNL     1      28.413   0.407  53.799  1.00  0.00    +0.077 A 
ATOM     22  C   UNL     1      28.861  -0.859  53.438  1.00  0.00    +0.141 A 
ATOM     23 Cl   UNL     1      29.491   1.558  54.490  1.00  0.00    -0.081 Cl
ATOM     24  F   UNL     1      30.141  -1.214  53.616  1.00  0.00    -0.205 F 
ENDBRANCH  16  17
ENDBRANCH  10  11
ENDBRANCH   1  10
TORSDOF 7
ENDMDL
MODEL 2
REMARK VINA RESULT:    -6.598      1.982      3.537
REMARK INTER + INTRA:          -9.795
REMARK INTER:                  -8.784
REMARK INTRA:                  -1.011
REMARK UNBOUND:                -0.690
REMARK SMILES C[N+](C)(C)C[C@@H](O)COc1ccc(-c2ccc(F)c(Cl)c2)cn1
REMARK SMILES IDX 8 1 6 2 5 3 2 4 1 5 3 6 4 7 7 8 9 10 10 11 11 12 23 13 12 14
REMARK SMILES IDX 22 15 13 16 14 17 15 18 21 19 16 20 19 21 17 22 20 23 18 24
REMARK H PARENT 7 9
ROOT
ATOM      1  C   UNL     1      21.439   3.886  52.426  1.00  0.00    +0.269 C 
ENDROOT
BRANCH   1   2
ATOM      2  C   UNL     1      20.441   2.755  52.142  1.00  0.00    +0.206 C 
BRANCH   2   3
ATOM      3  C   UNL     1      20.512   1.704  53.269  1.00  0.00    +0.299 C 
BRANCH   3   4
ATOM      4  N   UNL     1      20.942   0.279  52.816  1.00  0.00    -0.329 N 
ATOM      5  C   UNL     1      22.290  -0.117  53.418  1.00  0.00    +0.334 C 
ATOM      6  C   UNL     1      21.089   0.300  51.294  1.00  0.00    +0.334 C 
ATOM      7  C   UNL     1      19.899  -0.763  53.190  1.00  0.00    +0.334 C 
ENDBRANCH   3   4
ENDBRANCH   2   3
BRANCH   2   8
ATOM      8  O   UNL     1      19.120   3.309  52.067  1.00  0.00    -0.384 OA
ATOM      9  H   UNL     1      19.045   3.736  51.188  1.00  0.00    +0.211 HD
ENDBRANCH   2   8
ENDBRANCH   1   2
BRANCH   1  10
ATOM     10  O   UNL     1      22.442   3.837  51.404  1.00  0.00    -0.475 OA
BRANCH  10  11
ATOM     11  C   UNL     1      23.567   3.139  51.799  1.00  0.00    +0.213 A 
ATOM     12  C   UNL     1      24.263   2.470  50.808  1.00  0.00    +0.069 A 
ATOM     13  N   UNL     1      23.926   3.138  53.098  1.00  0.00    -0.221 NA
ATOM     14  C   UNL     1      25.406   1.756  51.168  1.00  0.00    +0.016 A 
ATOM     15  C   UNL     1      25.044   2.436  53.413  1.00  0.00    +0.123 A 
ATOM     16  C   UNL     1      25.828   1.725  52.503  1.00  0.00    +0.000 A 
BRANCH  16  17
ATOM     17  C   UNL     1      27.031   0.987  52.919  1.00  0.00    -0.015 A 
ATOM     18  C   UNL     1      28.118   1.651  53.517  1.00  0.00    +0.012 A 
ATOM     19  C   UNL     1      27.124  -0.405  52.731  1.00  0.00    +0.032 A 
ATOM     20  C   UNL     1      29.260   0.948  53.912  1.00  0.00    +0.041 A 
ATOM     21  C   UNL     1      28.267  -1.105  53.126  1.00  0.00    +0.077 A 
ATOM     22  C   UNL     1      29.329  -0.427  53.714  1.00  0.00    +0.141 A 
ATOM     23 Cl   UNL     1      28.342  -2.806  52.873  1.00  0.00    -0.081 Cl
ATOM     24  F   UNL     1      30.434  -1.079  54.100  1.00  0.00    -0.205 F 
ENDBRANCH  16  17
ENDBRANCH  10  11
ENDBRANCH   1  10
TORSDOF 7
ENDMDL
MODEL 3
REMARK VINA RESULT:    -6.585      5.318      8.217
REMARK INTER + INTRA:          -9.778
REMARK INTER:                  -9.134
REMARK INTRA:                  -0.643
REMARK UNBOUND:                -0.690
REMARK SMILES C[N+](C)(C)C[C@@H](O)COc1ccc(-c2ccc(F)c(Cl)c2)cn1
REMARK SMILES IDX 8 1 6 2 5 3 2 4 1 5 3 6 4 7 7 8 9 10 10 11 11 12 23 13 12 14
REMARK SMILES IDX 22 15 13 16 14 17 15 18 21 19 16 20 19 21 17 22 20 23 18 24
REMARK H PARENT 7 9
ROOT
ATOM      1  C   UNL     1      25.455   2.013  52.921  1.00  0.00    +0.269 C 
ENDROOT
BRANCH   1   2
ATOM      2  C   UNL     1      26.980   2.179  52.871  1.00  0.00    +0.206 C 
BRANCH   2   3
ATOM      3  C   UNL     1      27.654   0.792  52.886  1.00  0.00    +0.299 C 
BRANCH   3   4
ATOM      4  N   UNL     1      28.690   0.573  54.025  1.00  0.00    -0.329 N 
ATOM      5  C   UNL     1      29.691  -0.527  53.669  1.00  0.00    +0.334 C 
ATOM      6  C   UNL     1      27.922   0.131  55.272  1.00  0.00    +0.334 C 
ATOM      7  C   UNL     1      29.444   1.853  54.347  1.00  0.00    +0.334 C 
ENDBRANCH   3   4
ENDBRANCH   2   3
BRANCH   2   8
ATOM      8  O   UNL     1      27.331   2.886  51.673  1.00  0.00    -0.384 OA
ATOM      9  H   UNL     1      28.296   2.763  51.550  1.00  0.00    +0.211 HD
ENDBRANCH   2   8
ENDBRANCH   1   2
BRANCH   1  10
ATOM     10  O   UNL     1      25.185   0.632  53.194  1.00  0.00    -0.475 OA
BRANCH  10  11
ATOM     11  C   UNL     1      23.841   0.325  53.092  1.00  0.00    +0.213 A 
ATOM     12  C   UNL     1      23.140   0.937  52.068  1.00  0.00    +0.069 A 
ATOM     13  N   UNL     1      23.287  -0.531  53.973  1.00  0.00    -0.221 NA
ATOM     14  C   UNL     1      21.782   0.651  51.932  1.00  0.00    +0.016 A 
ATOM     15  C   UNL     1      21.964  -0.789  53.810  1.00  0.00    +0.123 A 
ATOM     16  C   UNL     1      21.155  -0.235  52.816  1.00  0.00    +0.000 A 
BRANCH  16  17
ATOM     17  C   UNL     1      19.727  -0.565  52.701  1.00  0.00    -0.015 A 
ATOM     18  C   UNL     1      19.113  -1.458  53.599  1.00  0.00    +0.012 A 
ATOM     19  C   UNL     1      18.934   0.007  51.688  1.00  0.00    +0.032 A 
ATOM     20  C   UNL     1      17.755  -1.770  53.488  1.00  0.00    +0.041 A 
ATOM     21  C   UNL     1      17.576  -0.307  51.578  1.00  0.00    +0.077 A 
ATOM     22  C   UNL     1      16.993  -1.194  52.478  1.00  0.00    +0.141 A 
ATOM     23 Cl   UNL     1      16.644   0.411  50.322  1.00  0.00    -0.081 Cl
ATOM     24  F   UNL     1      15.694  -1.508  52.391  1.00  0.00    -0.205 F 
ENDBRANCH  16  17
ENDBRANCH  10  11
ENDBRANCH   1  10
TORSDOF 7
ENDMDL
MODEL 4
REMARK VINA RESULT:    -6.542      2.805      3.885
REMARK INTER + INTRA:          -9.718
REMARK INTER:                  -9.121
REMARK INTRA:                  -0.598
REMARK UNBOUND:                -0.690
REMARK SMILES C[N+](C)(C)C[C@@H](O)COc1ccc(-c2ccc(F)c(Cl)c2)cn1
REMARK SMILES IDX 8 1 6 2 5 3 2 4 1 5 3 6 4 7 7 8 9 10 10 11 11 12 23 13 12 14
REMARK SMILES IDX 22 15 13 16 14 17 15 18 21 19 16 20 19 21 17 22 20 23 18 24
REMARK H PARENT 7 9
ROOT
ATOM      1  C   UNL     1      19.671  -0.749  53.376  1.00  0.00    +0.269 C 
ENDROOT
BRANCH   1   2
ATOM      2  C   UNL     1      18.198  -0.441  53.074  1.00  0.00    +0.206 C 
BRANCH   2   3
ATOM      3  C   UNL     1      17.893  -0.760  51.596  1.00  0.00    +0.299 C 
BRANCH   3   4
ATOM      4  N   UNL     1      17.311   0.424  50.772  1.00  0.00    -0.329 N 
ATOM      5  C   UNL     1      16.512  -0.072  49.566  1.00  0.00    +0.334 C 
ATOM      6  C   UNL     1      18.489   1.252  50.253  1.00  0.00    +0.334 C 
ATOM      7  C   UNL     1      16.428   1.318  51.627  1.00  0.00    +0.334 C 
ENDBRANCH   3   4
ENDBRANCH   2   3
BRANCH   2   8
ATOM      8  O   UNL     1      17.371  -1.240  53.932  1.00  0.00    -0.384 OA
ATOM      9  H   UNL     1      17.717  -1.123  54.841  1.00  0.00    +0.211 HD
ENDBRANCH   2   8
ENDBRANCH   1   2
BRANCH   1  10
ATOM     10  O   UNL     1      20.406   0.470  53.207  1.00  0.00    -0.475 OA
BRANCH  10  11
ATOM     11  C   UNL     1      21.773   0.272  53.239  1.00  0.00    +0.213 A 
ATOM     12  C   UNL     1      22.542   1.125  52.468  1.00  0.00    +0.069 A 
ATOM     13  N   UNL     1      22.284  -0.718  53.997  1.00  0.00    -0.221 NA
ATOM     14  C   UNL     1      23.926   0.959  52.476  1.00  0.00    +0.016 A 
ATOM     15  C   UNL     1      23.634  -0.851  53.985  1.00  0.00    +0.123 A 
ATOM     16  C   UNL     1      24.512  -0.051  53.250  1.00  0.00    +0.000 A 
BRANCH  16  17
ATOM     17  C   UNL     1      25.968  -0.254  53.287  1.00  0.00    -0.015 A 
ATOM     18  C   UNL     1      26.542  -1.469  52.870  1.00  0.00    +0.012 A 
ATOM     19  C   UNL     1      26.827   0.765  53.740  1.00  0.00    +0.032 A 
ATOM     20  C   UNL     1      27.927  -1.660  52.906  1.00  0.00    +0.041 A 
ATOM     21  C   UNL     1      28.210   0.572  53.775  1.00  0.00    +0.077 A 
ATOM     22  C   UNL     1      28.754  -0.639  53.360  1.00  0.00    +0.141 A 
ATOM     23 Cl   UNL     1      29.225   1.843  54.340  1.00  0.00    -0.081 Cl
ATOM     24  F   UNL     1      30.078  -0.845  53.386  1.00  0.00    -0.205 F 
ENDBRANCH  16  17
ENDBRANCH  10  11
ENDBRANCH   1  10
TORSDOF 7
ENDMDL
MODEL 5
REMARK VINA RESULT:    -6.517      3.957      5.208
REMARK INTER + INTRA:          -9.683
REMARK INTER:                  -9.123
REMARK INTRA:                  -0.559
REMARK UNBOUND:                -0.690
REMARK SMILES C[N+](C)(C)C[C@@H](O)COc1ccc(-c2ccc(F)c(Cl)c2)cn1
REMARK SMILES IDX 8 1 6 2 5 3 2 4 1 5 3 6 4 7 7 8 9 10 10 11 11 12 23 13 12 14
REMARK SMILES IDX 22 15 13 16 14 17 15 18 21 19 16 20 19 21 17 22 20 23 18 24
REMARK H PARENT 7 9
ROOT
ATOM      1  C   UNL     1      18.621  -0.536  52.729  1.00  0.00    +0.269 C 
ENDROOT
BRANCH   1   2
ATOM      2  C   UNL     1      17.178  -0.976  53.010  1.00  0.00    +0.206 C 
BRANCH   2   3
ATOM      3  C   UNL     1      16.372  -0.988  51.694  1.00  0.00    +0.299 C 
BRANCH   3   4
ATOM      4  N   UNL     1      14.884  -0.555  51.827  1.00  0.00    -0.329 N 
ATOM      5  C   UNL     1      14.355   0.039  50.521  1.00  0.00    +0.334 C 
ATOM      6  C   UNL     1      14.810   0.528  52.905  1.00  0.00    +0.334 C 
ATOM      7  C   UNL     1      14.000  -1.718  52.245  1.00  0.00    +0.334 C 
ENDBRANCH   3   4
ENDBRANCH   2   3
BRANCH   2   8
ATOM      8  O   UNL     1      17.196  -2.289  53.588  1.00  0.00    -0.384 OA
ATOM      9  H   UNL     1      16.363  -2.381  54.097  1.00  0.00    +0.211 HD
ENDBRANCH   2   8
ENDBRANCH   1   2
BRANCH   1  10
ATOM     10  O   UNL     1      19.458  -1.170  53.704  1.00  0.00    -0.475 OA
BRANCH  10  11
ATOM     11  C   UNL     1      20.784  -0.804  53.582  1.00  0.00    +0.213 A 
ATOM     12  C   UNL     1      21.642  -1.237  54.578  1.00  0.00    +0.069 A 
ATOM     13  N   UNL     1      21.173  -0.058  52.530  1.00  0.00    -0.221 NA
ATOM     14  C   UNL     1      22.990  -0.889  54.488  1.00  0.00    +0.016 A 
ATOM     15  C   UNL     1      22.491   0.261  52.472  1.00  0.00    +0.123 A 
ATOM     16  C   UNL     1      23.450  -0.119  53.413  1.00  0.00    +0.000 A 
BRANCH  16  17
ATOM     17  C   UNL     1      24.864   0.264  53.282  1.00  0.00    -0.015 A 
ATOM     18  C   UNL     1      25.347   0.871  52.107  1.00  0.00    +0.012 A 
ATOM     19  C   UNL     1      25.774   0.034  54.332  1.00  0.00    +0.032 A 
ATOM     20  C   UNL     1      26.691   1.234  51.985  1.00  0.00    +0.041 A 
ATOM     21  C   UNL     1      27.117   0.397  54.207  1.00  0.00    +0.077 A 
ATOM     22  C   UNL     1      27.570   0.994  53.035  1.00  0.00    +0.141 A 
ATOM     23 Cl   UNL     1      28.197   0.094  55.514  1.00  0.00    -0.081 Cl
ATOM     24  F   UNL     1      28.854   1.350  52.895  1.00  0.00    -0.205 F 
ENDBRANCH  16  17
ENDBRANCH  10  11
ENDBRANCH   1  10
TORSDOF 7
ENDMDL
MODEL 6
REMARK VINA RESULT:    -6.504      5.212      8.175
REMARK INTER + INTRA:          -9.666
REMARK INTER:                  -9.035
REMARK INTRA:                  -0.630
REMARK UNBOUND:                -0.690
REMARK SMILES C[N+](C)(C)C[C@@H](O)COc1ccc(-c2ccc(F)c(Cl)c2)cn1
REMARK SMILES IDX 8 1 6 2 5 3 2 4 1 5 3 6 4 7 7 8 9 10 10 11 11 12 23 13 12 14
REMARK SMILES IDX 22 15 13 16 14 17 15 18 21 19 16 20 19 21 17 22 20 23 18 24
REMARK H PARENT 7 9
ROOT
ATOM      1  C   UNL     1      25.305   1.957  52.639  1.00  0.00    +0.269 C 
ENDROOT
BRANCH   1   2
ATOM      2  C   UNL     1      26.825   2.112  52.783  1.00  0.00    +0.206 C 
BRANCH   2   3
ATOM      3  C   UNL     1      27.487   0.719  52.830  1.00  0.00    +0.299 C 
BRANCH   3   4
ATOM      4  N   UNL     1      28.486   0.502  54.002  1.00  0.00    -0.329 N 
ATOM      5  C   UNL     1      29.307   1.762  54.278  1.00  0.00    +0.334 C 
ATOM      6  C   UNL     1      29.450  -0.612  53.589  1.00  0.00    +0.334 C 
ATOM      7  C   UNL     1      27.770   0.079  55.274  1.00  0.00    +0.334 C 
ENDBRANCH   3   4
ENDBRANCH   2   3
BRANCH   2   8
ATOM      8  O   UNL     1      27.324   2.857  51.664  1.00  0.00    -0.384 OA
ATOM      9  H   UNL     1      26.555   3.038  51.084  1.00  0.00    +0.211 HD
ENDBRANCH   2   8
ENDBRANCH   1   2
BRANCH   1  10
ATOM     10  O   UNL     1      24.931   0.754  53.322  1.00  0.00    -0.475 OA
BRANCH  10  11
ATOM     11  C   UNL     1      23.588   0.461  53.182  1.00  0.00    +0.213 A 
ATOM     12  C   UNL     1      23.088  -0.554  53.979  1.00  0.00    +0.069 A 
ATOM     13  N   UNL     1      22.845   1.156  52.298  1.00  0.00    -0.221 NA
ATOM     14  C   UNL     1      21.735  -0.876  53.868  1.00  0.00    +0.016 A 
ATOM     15  C   UNL     1      21.533   0.818  52.218  1.00  0.00    +0.123 A 
ATOM     16  C   UNL     1      20.915  -0.183  52.969  1.00  0.00    +0.000 A 
BRANCH  16  17
ATOM     17  C   UNL     1      19.484  -0.493  52.829  1.00  0.00    -0.015 A 
ATOM     18  C   UNL     1      18.881  -1.504  53.601  1.00  0.00    +0.012 A 
ATOM     19  C   UNL     1      18.678   0.217  51.918  1.00  0.00    +0.032 A 
ATOM     20  C   UNL     1      17.520  -1.796  53.466  1.00  0.00    +0.041 A 
ATOM     21  C   UNL     1      17.319  -0.078  51.785  1.00  0.00    +0.077 A 
ATOM     22  C   UNL     1      16.747  -1.083  52.558  1.00  0.00    +0.141 A 
ATOM     23 Cl   UNL     1      16.371   0.811  50.656  1.00  0.00    -0.081 Cl
ATOM     24  F   UNL     1      15.445  -1.381  52.446  1.00  0.00    -0.205 F 
ENDBRANCH  16  17
ENDBRANCH  10  11
ENDBRANCH   1  10
TORSDOF 7
ENDMDL
MODEL 7
REMARK VINA RESULT:    -6.440      1.791      2.413
REMARK INTER + INTRA:          -9.577
REMARK INTER:                  -8.854
REMARK INTRA:                  -0.723
REMARK UNBOUND:                -0.690
REMARK SMILES C[N+](C)(C)C[C@@H](O)COc1ccc(-c2ccc(F)c(Cl)c2)cn1
REMARK SMILES IDX 8 1 6 2 5 3 2 4 1 5 3 6 4 7 7 8 9 10 10 11 11 12 23 13 12 14
REMARK SMILES IDX 22 15 13 16 14 17 15 18 21 19 16 20 19 21 17 22 20 23 18 24
REMARK H PARENT 7 9
ROOT
ATOM      1  C   UNL     1      20.291   0.336  51.082  1.00  0.00    +0.269 C 
ENDROOT
BRANCH   1   2
ATOM      2  C   UNL     1      19.131   1.244  50.651  1.00  0.00    +0.206 C 
BRANCH   2   3
ATOM      3  C   UNL     1      19.686   2.482  49.917  1.00  0.00    +0.299 C 
BRANCH   3   4
ATOM      4  N   UNL     1      19.436   3.840  50.632  1.00  0.00    -0.329 N 
ATOM      5  C   UNL     1      18.101   3.843  51.378  1.00  0.00    +0.334 C 
ATOM      6  C   UNL     1      19.382   4.928  49.558  1.00  0.00    +0.334 C 
ATOM      7  C   UNL     1      20.556   4.173  51.605  1.00  0.00    +0.334 C 
ENDBRANCH   3   4
ENDBRANCH   2   3
BRANCH   2   8
ATOM      8  O   UNL     1      18.261   0.505  49.781  1.00  0.00    -0.384 OA
ATOM      9  H   UNL     1      18.622  -0.406  49.734  1.00  0.00    +0.211 HD
ENDBRANCH   2   8
ENDBRANCH   1   2
BRANCH   1  10
ATOM     10  O   UNL     1      20.718   0.776  52.378  1.00  0.00    -0.475 OA
BRANCH  10  11
ATOM     11  C   UNL     1      22.087   0.687  52.542  1.00  0.00    +0.213 A 
ATOM     12  C   UNL     1      22.547  -0.288  53.408  1.00  0.00    +0.069 A 
ATOM     13  N   UNL     1      22.893   1.535  51.871  1.00  0.00    -0.221 NA
ATOM     14  C   UNL     1      23.923  -0.410  53.597  1.00  0.00    +0.016 A 
ATOM     15  C   UNL     1      24.226   1.387  52.076  1.00  0.00    +0.123 A 
ATOM     16  C   UNL     1      24.808   0.440  52.922  1.00  0.00    +0.000 A 
BRANCH  16  17
ATOM     17  C   UNL     1      26.265   0.339  53.094  1.00  0.00    -0.015 A 
ATOM     18  C   UNL     1      27.057   1.489  53.268  1.00  0.00    +0.012 A 
ATOM     19  C   UNL     1      26.906  -0.914  53.089  1.00  0.00    +0.032 A 
ATOM     20  C   UNL     1      28.442   1.390  53.431  1.00  0.00    +0.041 A 
ATOM     21  C   UNL     1      28.290  -1.010  53.252  1.00  0.00    +0.077 A 
ATOM     22  C   UNL     1      29.052   0.141  53.421  1.00  0.00    +0.141 A 
ATOM     23 Cl   UNL     1      29.035  -2.562  53.235  1.00  0.00    -0.081 Cl
ATOM     24  F   UNL     1      30.381   0.072  53.578  1.00  0.00    -0.205 F 
ENDBRANCH  16  17
ENDBRANCH  10  11
ENDBRANCH   1  10
TORSDOF 7
ENDMDL
MODEL 8
REMARK VINA RESULT:    -6.351      4.115      5.280
REMARK INTER + INTRA:          -9.454
REMARK INTER:                  -8.865
REMARK INTRA:                  -0.589
REMARK UNBOUND:                -0.690
REMARK SMILES C[N+](C)(C)C[C@@H](O)COc1ccc(-c2ccc(F)c(Cl)c2)cn1
REMARK SMILES IDX 8 1 6 2 5 3 2 4 1 5 3 6 4 7 7 8 9 10 10 11 11 12 23 13 12 14
REMARK SMILES IDX 22 15 13 16 14 17 15 18 21 19 16 20 19 21 17 22 20 23 18 24
REMARK H PARENT 7 9
ROOT
ATOM      1  C   UNL     1      18.255  -0.535  52.599  1.00  0.00    +0.269 C 
ENDROOT
BRANCH   1   2
ATOM      2  C   UNL     1      16.794  -0.909  52.877  1.00  0.00    +0.206 C 
BRANCH   2   3
ATOM      3  C   UNL     1      15.985  -0.860  51.564  1.00  0.00    +0.299 C 
BRANCH   3   4
ATOM      4  N   UNL     1      14.627  -0.107  51.652  1.00  0.00    -0.329 N 
ATOM      5  C   UNL     1      14.432   0.837  50.465  1.00  0.00    +0.334 C 
ATOM      6  C   UNL     1      14.645   0.734  52.930  1.00  0.00    +0.334 C 
ATOM      7  C   UNL     1      13.457  -1.075  51.724  1.00  0.00    +0.334 C 
ENDBRANCH   3   4
ENDBRANCH   2   3
BRANCH   2   8
ATOM      8  O   UNL     1      16.751  -2.231  53.433  1.00  0.00    -0.384 OA
ATOM      9  H   UNL     1      15.818  -2.398  53.684  1.00  0.00    +0.211 HD
ENDBRANCH   2   8
ENDBRANCH   1   2
BRANCH   1  10
ATOM     10  O   UNL     1      19.056  -1.159  53.610  1.00  0.00    -0.475 OA
BRANCH  10  11
ATOM     11  C   UNL     1      20.394  -0.833  53.502  1.00  0.00    +0.213 A 
ATOM     12  C   UNL     1      21.248  -1.397  54.433  1.00  0.00    +0.069 A 
ATOM     13  N   UNL     1      20.798  -0.000  52.523  1.00  0.00    -0.221 NA
ATOM     14  C   UNL     1      22.607  -1.094  54.355  1.00  0.00    +0.016 A 
ATOM     15  C   UNL     1      22.127   0.272  52.474  1.00  0.00    +0.123 A 
ATOM     16  C   UNL     1      23.083  -0.238  53.355  1.00  0.00    +0.000 A 
BRANCH  16  17
ATOM     17  C   UNL     1      24.510   0.101  53.238  1.00  0.00    -0.015 A 
ATOM     18  C   UNL     1      25.480  -0.566  54.010  1.00  0.00    +0.012 A 
ATOM     19  C   UNL     1      24.943   1.102  52.349  1.00  0.00    +0.032 A 
ATOM     20  C   UNL     1      26.835  -0.243  53.898  1.00  0.00    +0.041 A 
ATOM     21  C   UNL     1      26.298   1.425  52.239  1.00  0.00    +0.077 A 
ATOM     22  C   UNL     1      27.237   0.752  53.014  1.00  0.00    +0.141 A 
ATOM     23 Cl   UNL     1      26.785   2.659  51.142  1.00  0.00    -0.081 Cl
ATOM     24  F   UNL     1      28.542   1.045  52.924  1.00  0.00    -0.205 F 
ENDBRANCH  16  17
ENDBRANCH  10  11
ENDBRANCH   1  10
TORSDOF 7
ENDMDL
MODEL 9
REMARK VINA RESULT:    -6.323      1.527      2.160
REMARK INTER + INTRA:          -9.416
REMARK INTER:                  -8.640
REMARK INTRA:                  -0.777
REMARK UNBOUND:                -0.690
REMARK SMILES C[N+](C)(C)C[C@@H](O)COc1ccc(-c2ccc(F)c(Cl)c2)cn1
REMARK SMILES IDX 8 1 6 2 5 3 2 4 1 5 3 6 4 7 7 8 9 10 10 11 11 12 23 13 12 14
REMARK SMILES IDX 22 15 13 16 14 17 15 18 21 19 16 20 19 21 17 22 20 23 18 24
REMARK H PARENT 7 9
ROOT
ATOM      1  C   UNL     1      20.010   0.250  52.191  1.00  0.00    +0.269 C 
ENDROOT
BRANCH   1   2
ATOM      2  C   UNL     1      18.927   0.926  51.340  1.00  0.00    +0.206 C 
BRANCH   2   3
ATOM      3  C   UNL     1      19.588   1.752  50.217  1.00  0.00    +0.299 C 
BRANCH   3   4
ATOM      4  N   UNL     1      19.385   3.291  50.322  1.00  0.00    -0.329 N 
ATOM      5  C   UNL     1      18.366   3.648  51.405  1.00  0.00    +0.334 C 
ATOM      6  C   UNL     1      18.842   3.780  48.979  1.00  0.00    +0.334 C 
ATOM      7  C   UNL     1      20.695   4.007  50.608  1.00  0.00    +0.334 C 
ENDBRANCH   3   4
ENDBRANCH   2   3
BRANCH   2   8
ATOM      8  O   UNL     1      18.081  -0.086  50.774  1.00  0.00    -0.384 OA
ATOM      9  H   UNL     1      17.177   0.086  51.111  1.00  0.00    +0.211 HD
ENDBRANCH   2   8
ENDBRANCH   1   2
BRANCH   1  10
ATOM     10  O   UNL     1      20.749   1.289  52.846  1.00  0.00    -0.475 OA
BRANCH  10  11
ATOM     11  C   UNL     1      22.094   0.993  52.956  1.00  0.00    +0.213 A 
ATOM     12  C   UNL     1      22.417  -0.278  53.397  1.00  0.00    +0.069 A 
ATOM     13  N   UNL     1      23.008   1.932  52.641  1.00  0.00    -0.221 NA
ATOM     14  C   UNL     1      23.764  -0.614  53.518  1.00  0.00    +0.016 A 
ATOM     15  C   UNL     1      24.311   1.571  52.768  1.00  0.00    +0.123 A 
ATOM     16  C   UNL     1      24.758   0.320  53.200  1.00  0.00    +0.000 A 
BRANCH  16  17
ATOM     17  C   UNL     1      26.188  -0.000  53.311  1.00  0.00    -0.015 A 
ATOM     18  C   UNL     1      26.694  -1.232  52.854  1.00  0.00    +0.012 A 
ATOM     19  C   UNL     1      27.092   0.919  53.878  1.00  0.00    +0.032 A 
ATOM     20  C   UNL     1      28.055  -1.534  52.961  1.00  0.00    +0.041 A 
ATOM     21  C   UNL     1      28.451   0.614  53.984  1.00  0.00    +0.077 A 
ATOM     22  C   UNL     1      28.926  -0.610  53.527  1.00  0.00    +0.141 A 
ATOM     23 Cl   UNL     1      29.520   1.765  54.688  1.00  0.00    -0.081 Cl
ATOM     24  F   UNL     1      30.226  -0.923  53.619  1.00  0.00    -0.205 F 
ENDBRANCH  16  17
ENDBRANCH  10  11
ENDBRANCH   1  10
TORSDOF 7
ENDMDL
