MODEL 1
REMARK VINA RESULT:    -8.422      0.000      0.000
REMARK INTER + INTRA:         -10.773
REMARK INTER:                  -9.652
REMARK INTRA:                  -1.120
REMARK UNBOUND:                -1.120
REMARK SMILES N#CC(C#N)=C(N)C(C#N)=C1C(=O)Nc2ncnc(-c3ccc(F)c(Cl)c3)c21
REMARK SMILES IDX 8 1 9 2 10 3 11 4 12 5 13 6 14 7 15 8 16 9 17 10 18 11 19 12
REMARK SMILES IDX 28 13 6 15 1 16 2 17 3 18 4 19 5 20 7 21 20 24 21 25 27 26
REMARK SMILES IDX 22 27 25 28 23 29 26 30 24 31
REMARK H PARENT 14 14 7 22 7 23
ROOT
ATOM      1  C   UNL     1      19.372   0.605  50.980  1.00  0.00    +0.091 C 
ATOM      2  C   UNL     1      20.427   0.987  50.094  1.00  0.00    +0.102 C 
ATOM      3  N   UNL     1      21.265   1.277  49.347  1.00  0.00    -0.192 NA
ATOM      4  C   UNL     1      19.612   0.053  52.191  1.00  0.00    +0.073 C 
ATOM      5  C   UNL     1      18.503  -0.632  52.957  1.00  0.00    +0.259 C 
ATOM      6  O   UNL     1      17.307  -0.572  52.751  1.00  0.00    -0.269 OA
ATOM      7  N   UNL     1      19.140  -1.369  53.925  1.00  0.00    -0.306 N 
ATOM      8  C   UNL     1      20.504  -1.136  53.931  1.00  0.00    +0.145 A 
ATOM      9  N   UNL     1      21.309  -1.690  54.835  1.00  0.00    -0.218 NA
ATOM     10  C   UNL     1      22.571  -1.261  54.752  1.00  0.00    +0.224 A 
ATOM     11  N   UNL     1      23.027  -0.324  53.901  1.00  0.00    -0.236 NA
ATOM     12  C   UNL     1      22.146   0.233  53.027  1.00  0.00    +0.084 A 
ATOM     13  C   UNL     1      20.849  -0.219  52.948  1.00  0.00    +0.058 A 
ATOM     14  H   UNL     1      18.675  -1.943  54.612  1.00  0.00    +0.171 HD
ENDROOT
BRANCH   1  15
ATOM     15  C   UNL     1      18.014   0.803  50.419  1.00  0.00    +0.079 C 
ATOM     16  N   UNL     1      14.985   2.332  49.654  1.00  0.00    -0.192 NA
ATOM     17  C   UNL     1      16.049   2.187  50.094  1.00  0.00    +0.113 C 
ATOM     18  C   UNL     1      17.353   1.976  50.624  1.00  0.00    +0.153 C 
ATOM     19  C   UNL     1      17.933   3.031  51.385  1.00  0.00    +0.113 C 
ATOM     20  N   UNL     1      18.469   3.837  52.027  1.00  0.00    -0.192 NA
BRANCH  15  21
ATOM     21  N   UNL     1      17.514  -0.278  49.694  1.00  0.00    -0.396 N 
ATOM     22  H   UNL     1      17.660  -0.230  48.684  1.00  0.00    +0.156 HD
ATOM     23  H   UNL     1      16.544  -0.517  49.900  1.00  0.00    +0.156 HD
ENDBRANCH  15  21
ENDBRANCH   1  15
BRANCH  12  24
ATOM     24  C   UNL     1      22.695   1.393  52.317  1.00  0.00    +0.003 A 
ATOM     25  C   UNL     1      23.884   1.278  51.572  1.00  0.00    +0.013 A 
ATOM     26  C   UNL     1      22.089   2.662  52.411  1.00  0.00    +0.034 A 
ATOM     27  C   UNL     1      24.433   2.382  50.913  1.00  0.00    +0.041 A 
ATOM     28  C   UNL     1      22.639   3.764  51.749  1.00  0.00    +0.077 A 
ATOM     29  C   UNL     1      23.804   3.617  51.001  1.00  0.00    +0.141 A 
ATOM     30 Cl   UNL     1      21.861   5.294  51.872  1.00  0.00    -0.081 Cl
ATOM     31  F   UNL     1      24.347   4.665  50.364  1.00  0.00    -0.205 F 
ENDBRANCH  12  24
TORSDOF 3
ENDMDL
MODEL 2
REMARK VINA RESULT:    -8.024      3.895      6.235
REMARK INTER + INTRA:         -10.317
REMARK INTER:                  -9.342
REMARK INTRA:                  -0.975
REMARK UNBOUND:                -1.120
REMARK SMILES N#CC(C#N)=C(N)C(C#N)=C1C(=O)Nc2ncnc(-c3ccc(F)c(Cl)c3)c21
REMARK SMILES IDX 8 1 9 2 10 3 11 4 12 5 13 6 14 7 15 8 16 9 17 10 18 11 19 12
REMARK SMILES IDX 28 13 6 15 1 16 2 17 3 18 4 19 5 20 7 21 20 24 21 25 27 26
REMARK SMILES IDX 22 27 25 28 23 29 26 30 24 31
REMARK H PARENT 14 14 7 22 7 23
ROOT
ATOM      1  C   UNL     1      23.901   3.568  51.386  1.00  0.00    +0.091 C 
ATOM      2  C   UNL     1      22.699   3.574  52.159  1.00  0.00    +0.102 C 
ATOM      3  N   UNL     1      21.731   3.615  52.797  1.00  0.00    -0.192 NA
ATOM      4  C   UNL     1      24.835   2.599  51.513  1.00  0.00    +0.073 C 
ATOM      5  C   UNL     1      26.221   2.786  50.936  1.00  0.00    +0.259 C 
ATOM      6  O   UNL     1      26.588   3.624  50.137  1.00  0.00    -0.269 OA
ATOM      7  N   UNL     1      26.991   1.821  51.536  1.00  0.00    -0.306 N 
ATOM      8  C   UNL     1      26.230   0.978  52.328  1.00  0.00    +0.145 A 
ATOM      9  N   UNL     1      26.760  -0.075  52.948  1.00  0.00    -0.218 NA
ATOM     10  C   UNL     1      25.854  -0.830  53.573  1.00  0.00    +0.224 A 
ATOM     11  N   UNL     1      24.523  -0.630  53.562  1.00  0.00    -0.236 NA
ATOM     12  C   UNL     1      24.040   0.442  52.879  1.00  0.00    +0.084 A 
ATOM     13  C   UNL     1      24.894   1.351  52.298  1.00  0.00    +0.058 A 
ATOM     14  H   UNL     1      27.973   1.674  51.359  1.00  0.00    +0.171 HD
ENDROOT
BRANCH   1  15
ATOM     15  C   UNL     1      24.053   4.748  50.501  1.00  0.00    +0.079 C 
ATOM     16  N   UNL     1      23.875   6.747  47.660  1.00  0.00    -0.192 NA
ATOM     17  C   UNL     1      23.750   5.819  48.347  1.00  0.00    +0.113 C 
ATOM     18  C   UNL     1      23.614   4.698  49.213  1.00  0.00    +0.153 C 
ATOM     19  C   UNL     1      23.016   3.521  48.678  1.00  0.00    +0.113 C 
ATOM     20  N   UNL     1      22.552   2.521  48.314  1.00  0.00    -0.192 NA
BRANCH  15  21
ATOM     21  N   UNL     1      24.653   5.857  51.097  1.00  0.00    -0.396 N 
ATOM     22  H   UNL     1      24.008   6.538  51.501  1.00  0.00    +0.156 HD
ATOM     23  H   UNL     1      25.347   6.329  50.517  1.00  0.00    +0.156 HD
ENDBRANCH  15  21
ENDBRANCH   1  15
BRANCH  12  24
ATOM     24  C   UNL     1      22.580   0.429  52.744  1.00  0.00    +0.003 A 
ATOM     25  C   UNL     1      21.759   0.253  53.875  1.00  0.00    +0.013 A 
ATOM     26  C   UNL     1      21.961   0.524  51.482  1.00  0.00    +0.034 A 
ATOM     27  C   UNL     1      20.368   0.211  53.757  1.00  0.00    +0.041 A 
ATOM     28  C   UNL     1      20.569   0.484  51.367  1.00  0.00    +0.077 A 
ATOM     29  C   UNL     1      19.780   0.332  52.504  1.00  0.00    +0.141 A 
ATOM     30 Cl   UNL     1      19.848   0.623  49.810  1.00  0.00    -0.081 Cl
ATOM     31  F   UNL     1      18.442   0.287  52.410  1.00  0.00    -0.205 F 
ENDBRANCH  12  24
TORSDOF 3
ENDMDL
MODEL 3
REMARK VINA RESULT:    -7.813      4.024      6.186
REMARK INTER + INTRA:         -10.076
REMARK INTER:                  -9.065
REMARK INTRA:                  -1.011
REMARK UNBOUND:                -1.120
REMARK SMILES N#CC(C#N)=C(N)C(C#N)=C1C(=O)Nc2ncnc(-c3ccc(F)c(Cl)c3)c21
REMARK SMILES IDX 8 1 9 2 10 3 11 4 12 5 13 6 14 7 15 8 16 9 17 10 18 11 19 12
REMARK SMILES IDX 28 13 6 15 1 16 2 17 3 18 4 19 5 20 7 21 20 24 21 25 27 26
REMARK SMILES IDX 22 27 25 28 23 29 26 30 24 31
REMARK H PARENT 14 14 7 22 7 23
ROOT
ATOM      1  C   UNL     1      22.622   4.760  51.068  1.00  0.00    +0.091 C 
ATOM      2  C   UNL     1      21.697   4.109  51.943  1.00  0.00    +0.102 C 
ATOM      3  N   UNL     1      20.941   3.616  52.671  1.00  0.00    -0.192 NA
ATOM      4  C   UNL     1      23.860   4.269  50.834  1.00  0.00    +0.073 C 
ATOM      5  C   UNL     1      24.917   5.129  50.178  1.00  0.00    +0.259 C 
ATOM      6  O   UNL     1      24.762   6.181  49.591  1.00  0.00    -0.269 OA
ATOM      7  N   UNL     1      26.104   4.481  50.416  1.00  0.00    -0.306 N 
ATOM      8  C   UNL     1      25.904   3.260  51.039  1.00  0.00    +0.145 A 
ATOM      9  N   UNL     1      26.911   2.429  51.299  1.00  0.00    -0.218 NA
ATOM     10  C   UNL     1      26.513   1.257  51.800  1.00  0.00    +0.224 A 
ATOM     11  N   UNL     1      25.236   0.878  51.987  1.00  0.00    -0.236 NA
ATOM     12  C   UNL     1      24.250   1.758  51.666  1.00  0.00    +0.084 A 
ATOM     13  C   UNL     1      24.551   3.035  51.253  1.00  0.00    +0.058 A 
ATOM     14  H   UNL     1      27.007   4.798  50.101  1.00  0.00    +0.171 HD
ENDROOT
BRANCH   1  15
ATOM     15  C   UNL     1      22.125   6.042  50.512  1.00  0.00    +0.079 C 
ATOM     16  N   UNL     1      20.575   8.283  48.352  1.00  0.00    -0.192 NA
ATOM     17  C   UNL     1      20.958   7.276  48.782  1.00  0.00    +0.113 C 
ATOM     18  C   UNL     1      21.444   6.057  49.333  1.00  0.00    +0.153 C 
ATOM     19  C   UNL     1      21.203   4.860  48.599  1.00  0.00    +0.113 C 
ATOM     20  N   UNL     1      21.059   3.844  48.056  1.00  0.00    -0.192 NA
BRANCH  15  21
ATOM     21  N   UNL     1      22.407   7.166  51.285  1.00  0.00    -0.396 N 
ATOM     22  H   UNL     1      23.191   7.735  50.961  1.00  0.00    +0.156 HD
ATOM     23  H   UNL     1      22.492   6.985  52.286  1.00  0.00    +0.156 HD
ENDBRANCH  15  21
ENDBRANCH   1  15
BRANCH  12  24
ATOM     24  C   UNL     1      22.912   1.158  51.693  1.00  0.00    +0.003 A 
ATOM     25  C   UNL     1      22.100   1.169  50.543  1.00  0.00    +0.013 A 
ATOM     26  C   UNL     1      22.377   0.617  52.879  1.00  0.00    +0.034 A 
ATOM     27  C   UNL     1      20.813   0.626  50.562  1.00  0.00    +0.041 A 
ATOM     28  C   UNL     1      21.090   0.071  52.895  1.00  0.00    +0.077 A 
ATOM     29  C   UNL     1      20.317   0.075  51.737  1.00  0.00    +0.141 A 
ATOM     30 Cl   UNL     1      20.478  -0.598  54.358  1.00  0.00    -0.081 Cl
ATOM     31  F   UNL     1      19.078  -0.439  51.737  1.00  0.00    -0.205 F 
ENDBRANCH  12  24
TORSDOF 3
ENDMDL
MODEL 4
REMARK VINA RESULT:    -7.629      3.296      5.792
REMARK INTER + INTRA:          -9.864
REMARK INTER:                  -8.858
REMARK INTRA:                  -1.006
REMARK UNBOUND:                -1.120
REMARK SMILES N#CC(C#N)=C(N)C(C#N)=C1C(=O)Nc2ncnc(-c3ccc(F)c(Cl)c3)c21
REMARK SMILES IDX 8 1 9 2 10 3 11 4 12 5 13 6 14 7 15 8 16 9 17 10 18 11 19 12
REMARK SMILES IDX 28 13 6 15 1 16 2 17 3 18 4 19 5 20 7 21 20 24 21 25 27 26
REMARK SMILES IDX 22 27 25 28 23 29 26 30 24 31
REMARK H PARENT 14 14 7 22 7 23
ROOT
ATOM      1  C   UNL     1      22.659   3.299  52.249  1.00  0.00    +0.091 C 
ATOM      2  C   UNL     1      21.260   3.577  52.152  1.00  0.00    +0.102 C 
ATOM      3  N   UNL     1      20.131   3.835  52.096  1.00  0.00    -0.192 NA
ATOM      4  C   UNL     1      23.128   2.096  52.652  1.00  0.00    +0.073 C 
ATOM      5  C   UNL     1      24.577   1.933  53.054  1.00  0.00    +0.259 C 
ATOM      6  O   UNL     1      25.498   2.699  52.852  1.00  0.00    -0.269 OA
ATOM      7  N   UNL     1      24.627   0.739  53.731  1.00  0.00    -0.306 N 
ATOM      8  C   UNL     1      23.410   0.080  53.699  1.00  0.00    +0.145 A 
ATOM      9  N   UNL     1      23.249  -1.130  54.230  1.00  0.00    -0.218 NA
ATOM     10  C   UNL     1      22.040  -1.649  54.004  1.00  0.00    +0.224 A 
ATOM     11  N   UNL     1      21.065  -1.079  53.272  1.00  0.00    -0.236 NA
ATOM     12  C   UNL     1      21.305   0.142  52.724  1.00  0.00    +0.084 A 
ATOM     13  C   UNL     1      22.472   0.819  52.990  1.00  0.00    +0.058 A 
ATOM     14  H   UNL     1      25.462   0.336  54.128  1.00  0.00    +0.171 HD
ENDROOT
BRANCH   1  15
ATOM     15  C   UNL     1      23.526   4.460  51.939  1.00  0.00    +0.079 C 
ATOM     16  N   UNL     1      25.464   6.695  50.109  1.00  0.00    -0.192 NA
ATOM     17  C   UNL     1      24.783   5.785  50.343  1.00  0.00    +0.113 C 
ATOM     18  C   UNL     1      23.951   4.675  50.663  1.00  0.00    +0.153 C 
ATOM     19  C   UNL     1      23.591   3.795  49.602  1.00  0.00    +0.113 C 
ATOM     20  N   UNL     1      23.265   3.024  48.797  1.00  0.00    -0.192 NA
BRANCH  15  21
ATOM     21  N   UNL     1      23.838   5.269  53.030  1.00  0.00    -0.396 N 
ATOM     22  H   UNL     1      23.291   6.128  53.107  1.00  0.00    +0.156 HD
ATOM     23  H   UNL     1      24.832   5.473  53.140  1.00  0.00    +0.156 HD
ENDBRANCH  15  21
ENDBRANCH   1  15
BRANCH  12  24
ATOM     24  C   UNL     1      20.272   0.556  51.768  1.00  0.00    +0.003 A 
ATOM     25  C   UNL     1      20.612   0.860  50.435  1.00  0.00    +0.013 A 
ATOM     26  C   UNL     1      18.932   0.725  52.168  1.00  0.00    +0.034 A 
ATOM     27  C   UNL     1      19.642   1.281  49.522  1.00  0.00    +0.041 A 
ATOM     28  C   UNL     1      17.963   1.145  51.251  1.00  0.00    +0.077 A 
ATOM     29  C   UNL     1      18.322   1.416  49.934  1.00  0.00    +0.141 A 
ATOM     30 Cl   UNL     1      16.332   1.322  51.771  1.00  0.00    -0.081 Cl
ATOM     31  F   UNL     1      17.406   1.825  49.043  1.00  0.00    -0.205 F 
ENDBRANCH  12  24
TORSDOF 3
ENDMDL
MODEL 5
REMARK VINA RESULT:    -7.458      2.290      3.288
REMARK INTER + INTRA:          -9.668
REMARK INTER:                  -8.579
REMARK INTRA:                  -1.089
REMARK UNBOUND:                -1.120
REMARK SMILES N#CC(C#N)=C(N)C(C#N)=C1C(=O)Nc2ncnc(-c3ccc(F)c(Cl)c3)c21
REMARK SMILES IDX 8 1 9 2 10 3 11 4 12 5 13 6 14 7 15 8 16 9 17 10 18 11 19 12
REMARK SMILES IDX 28 13 6 15 1 16 2 17 3 18 4 19 5 20 7 21 20 24 21 25 27 26
REMARK SMILES IDX 22 27 25 28 23 29 26 30 24 31
REMARK H PARENT 14 14 7 22 7 23
ROOT
ATOM      1  C   UNL     1      21.918   2.032  50.321  1.00  0.00    +0.091 C 
ATOM      2  C   UNL     1      22.719   2.470  49.221  1.00  0.00    +0.102 C 
ATOM      3  N   UNL     1      23.346   2.805  48.305  1.00  0.00    -0.192 NA
ATOM      4  C   UNL     1      22.458   1.484  51.433  1.00  0.00    +0.073 C 
ATOM      5  C   UNL     1      21.589   0.741  52.423  1.00  0.00    +0.259 C 
ATOM      6  O   UNL     1      20.377   0.745  52.501  1.00  0.00    -0.269 OA
ATOM      7  N   UNL     1      22.466   0.029  53.204  1.00  0.00    -0.306 N 
ATOM      8  C   UNL     1      23.783   0.327  52.898  1.00  0.00    +0.145 A 
ATOM      9  N   UNL     1      24.800  -0.194  53.580  1.00  0.00    -0.218 NA
ATOM     10  C   UNL     1      25.987   0.295  53.214  1.00  0.00    +0.224 A 
ATOM     11  N   UNL     1      26.190   1.259  52.297  1.00  0.00    -0.236 NA
ATOM     12  C   UNL     1      25.105   1.779  51.661  1.00  0.00    +0.084 A 
ATOM     13  C   UNL     1      23.847   1.266  51.877  1.00  0.00    +0.058 A 
ATOM     14  H   UNL     1      22.200  -0.571  53.970  1.00  0.00    +0.171 HD
ENDROOT
BRANCH   1  15
ATOM     15  C   UNL     1      20.459   2.167  50.094  1.00  0.00    +0.079 C 
ATOM     16  N   UNL     1      17.282   3.580  50.018  1.00  0.00    -0.192 NA
ATOM     17  C   UNL     1      18.424   3.483  50.196  1.00  0.00    +0.113 C 
ATOM     18  C   UNL     1      19.824   3.331  50.406  1.00  0.00    +0.153 C 
ATOM     19  C   UNL     1      20.529   4.435  50.966  1.00  0.00    +0.113 C 
ATOM     20  N   UNL     1      21.173   5.283  51.431  1.00  0.00    -0.192 NA
BRANCH  15  21
ATOM     21  N   UNL     1      19.841   1.043  49.550  1.00  0.00    -0.396 N 
ATOM     22  H   UNL     1      19.894   0.964  48.533  1.00  0.00    +0.156 HD
ATOM     23  H   UNL     1      18.884   0.887  49.867  1.00  0.00    +0.156 HD
ENDBRANCH  15  21
ENDBRANCH   1  15
BRANCH  12  24
ATOM     24  C   UNL     1      25.421   2.969  50.863  1.00  0.00    +0.003 A 
ATOM     25  C   UNL     1      26.425   2.922  49.877  1.00  0.00    +0.013 A 
ATOM     26  C   UNL     1      24.781   4.201  51.103  1.00  0.00    +0.034 A 
ATOM     27  C   UNL     1      26.755   4.055  49.129  1.00  0.00    +0.041 A 
ATOM     28  C   UNL     1      25.111   5.332  50.351  1.00  0.00    +0.077 A 
ATOM     29  C   UNL     1      26.092   5.253  49.367  1.00  0.00    +0.141 A 
ATOM     30 Cl   UNL     1      24.295   6.815  50.660  1.00  0.00    -0.081 Cl
ATOM     31  F   UNL     1      26.424   6.331  48.640  1.00  0.00    -0.205 F 
ENDBRANCH  12  24
TORSDOF 3
ENDMDL
MODEL 6
REMARK VINA RESULT:    -7.385      3.260      6.522
REMARK INTER + INTRA:          -9.585
REMARK INTER:                  -8.555
REMARK INTRA:                  -1.030
REMARK UNBOUND:                -1.120
REMARK SMILES N#CC(C#N)=C(N)C(C#N)=C1C(=O)Nc2ncnc(-c3ccc(F)c(Cl)c3)c21
REMARK SMILES IDX 8 1 9 2 10 3 11 4 12 5 13 6 14 7 15 8 16 9 17 10 18 11 19 12
REMARK SMILES IDX 28 13 6 15 1 16 2 17 3 18 4 19 5 20 7 21 20 24 21 25 27 26
REMARK SMILES IDX 22 27 25 28 23 29 26 30 24 31
REMARK H PARENT 14 14 7 22 7 23
ROOT
ATOM      1  C   UNL     1      24.700   1.890  53.382  1.00  0.00    +0.091 C 
ATOM      2  C   UNL     1      24.430   3.292  53.457  1.00  0.00    +0.102 C 
ATOM      3  N   UNL     1      24.227   4.430  53.553  1.00  0.00    -0.192 NA
ATOM      4  C   UNL     1      23.747   0.989  53.052  1.00  0.00    +0.073 C 
ATOM      5  C   UNL     1      23.968  -0.487  53.296  1.00  0.00    +0.259 C 
ATOM      6  O   UNL     1      25.012  -1.052  53.551  1.00  0.00    -0.269 OA
ATOM      7  N   UNL     1      22.722  -1.055  53.197  1.00  0.00    -0.306 N 
ATOM      8  C   UNL     1      21.767  -0.132  52.806  1.00  0.00    +0.145 A 
ATOM      9  N   UNL     1      20.503  -0.480  52.578  1.00  0.00    -0.218 NA
ATOM     10  C   UNL     1      19.757   0.521  52.102  1.00  0.00    +0.224 A 
ATOM     11  N   UNL     1      20.199   1.758  51.810  1.00  0.00    -0.236 NA
ATOM     12  C   UNL     1      21.511   2.040  52.030  1.00  0.00    +0.084 A 
ATOM     13  C   UNL     1      22.341   1.119  52.626  1.00  0.00    +0.058 A 
ATOM     14  H   UNL     1      22.527  -2.039  53.304  1.00  0.00    +0.171 HD
ENDROOT
BRANCH   1  15
ATOM     15  C   UNL     1      26.084   1.522  53.768  1.00  0.00    +0.079 C 
ATOM     16  N   UNL     1      29.519   1.030  53.535  1.00  0.00    -0.192 NA
ATOM     17  C   UNL     1      28.439   1.323  53.227  1.00  0.00    +0.113 C 
ATOM     18  C   UNL     1      27.103   1.669  52.877  1.00  0.00    +0.153 C 
ATOM     19  C   UNL     1      26.874   2.161  51.560  1.00  0.00    +0.113 C 
ATOM     20  N   UNL     1      26.602   2.556  50.502  1.00  0.00    -0.192 NA
BRANCH  15  21
ATOM     21  N   UNL     1      26.224   1.044  55.069  1.00  0.00    -0.396 N 
ATOM     22  H   UNL     1      25.786   0.139  55.252  1.00  0.00    +0.156 HD
ATOM     23  H   UNL     1      25.972   1.711  55.798  1.00  0.00    +0.156 HD
ENDBRANCH  15  21
ENDBRANCH   1  15
BRANCH  12  24
ATOM     24  C   UNL     1      21.925   3.328  51.464  1.00  0.00    +0.003 A 
ATOM     25  C   UNL     1      21.300   4.522  51.870  1.00  0.00    +0.013 A 
ATOM     26  C   UNL     1      22.908   3.402  50.457  1.00  0.00    +0.034 A 
ATOM     27  C   UNL     1      21.666   5.753  51.320  1.00  0.00    +0.041 A 
ATOM     28  C   UNL     1      23.274   4.635  49.909  1.00  0.00    +0.077 A 
ATOM     29  C   UNL     1      22.655   5.803  50.345  1.00  0.00    +0.141 A 
ATOM     30 Cl   UNL     1      24.492   4.688  48.694  1.00  0.00    -0.081 Cl
ATOM     31  F   UNL     1      22.991   6.993  49.826  1.00  0.00    -0.205 F 
ENDBRANCH  12  24
TORSDOF 3
ENDMDL
MODEL 7
REMARK VINA RESULT:    -7.080      3.197      6.323
REMARK INTER + INTRA:          -9.235
REMARK INTER:                  -8.284
REMARK INTRA:                  -0.951
REMARK UNBOUND:                -1.120
REMARK SMILES N#CC(C#N)=C(N)C(C#N)=C1C(=O)Nc2ncnc(-c3ccc(F)c(Cl)c3)c21
REMARK SMILES IDX 8 1 9 2 10 3 11 4 12 5 13 6 14 7 15 8 16 9 17 10 18 11 19 12
REMARK SMILES IDX 28 13 6 15 1 16 2 17 3 18 4 19 5 20 7 21 20 24 21 25 27 26
REMARK SMILES IDX 22 27 25 28 23 29 26 30 24 31
REMARK H PARENT 14 14 7 22 7 23
ROOT
ATOM      1  C   UNL     1      22.877   2.379  51.852  1.00  0.00    +0.091 C 
ATOM      2  C   UNL     1      23.280   3.691  52.250  1.00  0.00    +0.102 C 
ATOM      3  N   UNL     1      23.593   4.749  52.608  1.00  0.00    -0.192 NA
ATOM      4  C   UNL     1      22.147   2.156  50.736  1.00  0.00    +0.073 C 
ATOM      5  C   UNL     1      21.467   0.824  50.516  1.00  0.00    +0.259 C 
ATOM      6  O   UNL     1      21.660  -0.219  51.107  1.00  0.00    -0.269 OA
ATOM      7  N   UNL     1      20.551   1.051  49.517  1.00  0.00    -0.306 N 
ATOM      8  C   UNL     1      20.659   2.333  49.005  1.00  0.00    +0.145 A 
ATOM      9  N   UNL     1      19.918   2.747  47.980  1.00  0.00    -0.218 NA
ATOM     10  C   UNL     1      20.240   3.972  47.556  1.00  0.00    +0.224 A 
ATOM     11  N   UNL     1      21.240   4.732  48.040  1.00  0.00    -0.236 NA
ATOM     12  C   UNL     1      21.986   4.236  49.063  1.00  0.00    +0.084 A 
ATOM     13  C   UNL     1      21.666   3.036  49.653  1.00  0.00    +0.058 A 
ATOM     14  H   UNL     1      19.934   0.353  49.131  1.00  0.00    +0.171 HD
ENDROOT
BRANCH   1  15
ATOM     15  C   UNL     1      23.269   1.314  52.806  1.00  0.00    +0.079 C 
ATOM     16  N   UNL     1      25.244  -1.006  54.482  1.00  0.00    -0.192 NA
ATOM     17  C   UNL     1      24.947  -0.171  53.734  1.00  0.00    +0.113 C 
ATOM     18  C   UNL     1      24.549   0.850  52.826  1.00  0.00    +0.153 C 
ATOM     19  C   UNL     1      25.536   1.357  51.932  1.00  0.00    +0.113 C 
ATOM     20  N   UNL     1      26.278   1.813  51.163  1.00  0.00    -0.192 NA
BRANCH  15  21
ATOM     21  N   UNL     1      22.246   0.867  53.641  1.00  0.00    -0.396 N 
ATOM     22  H   UNL     1      22.258  -0.133  53.851  1.00  0.00    +0.156 HD
ATOM     23  H   UNL     1      21.309   1.157  53.360  1.00  0.00    +0.156 HD
ENDBRANCH  15  21
ENDBRANCH   1  15
BRANCH  12  24
ATOM     24  C   UNL     1      23.178   5.042  49.349  1.00  0.00    +0.003 A 
ATOM     25  C   UNL     1      23.052   6.358  49.835  1.00  0.00    +0.013 A 
ATOM     26  C   UNL     1      24.472   4.552  49.086  1.00  0.00    +0.034 A 
ATOM     27  C   UNL     1      24.178   7.146  50.085  1.00  0.00    +0.041 A 
ATOM     28  C   UNL     1      25.598   5.341  49.340  1.00  0.00    +0.077 A 
ATOM     29  C   UNL     1      25.445   6.631  49.841  1.00  0.00    +0.141 A 
ATOM     30 Cl   UNL     1      27.163   4.701  49.024  1.00  0.00    -0.081 Cl
ATOM     31  F   UNL     1      26.514   7.403  50.085  1.00  0.00    -0.205 F 
ENDBRANCH  12  24
TORSDOF 3
ENDMDL
MODEL 8
REMARK VINA RESULT:    -6.947      2.723      4.815
REMARK INTER + INTRA:          -9.082
REMARK INTER:                  -8.064
REMARK INTRA:                  -1.018
REMARK UNBOUND:                -1.120
REMARK SMILES N#CC(C#N)=C(N)C(C#N)=C1C(=O)Nc2ncnc(-c3ccc(F)c(Cl)c3)c21
REMARK SMILES IDX 8 1 9 2 10 3 11 4 12 5 13 6 14 7 15 8 16 9 17 10 18 11 19 12
REMARK SMILES IDX 28 13 6 15 1 16 2 17 3 18 4 19 5 20 7 21 20 24 21 25 27 26
REMARK SMILES IDX 22 27 25 28 23 29 26 30 24 31
REMARK H PARENT 14 14 7 22 7 23
ROOT
ATOM      1  C   UNL     1      18.628   2.824  50.881  1.00  0.00    +0.091 C 
ATOM      2  C   UNL     1      19.575   2.996  51.938  1.00  0.00    +0.102 C 
ATOM      3  N   UNL     1      20.323   3.167  52.808  1.00  0.00    -0.192 NA
ATOM      4  C   UNL     1      19.005   2.711  49.587  1.00  0.00    +0.073 C 
ATOM      5  C   UNL     1      17.989   2.857  48.476  1.00  0.00    +0.259 C 
ATOM      6  O   UNL     1      16.778   2.839  48.566  1.00  0.00    -0.269 OA
ATOM      7  N   UNL     1      18.732   3.048  47.336  1.00  0.00    -0.306 N 
ATOM      8  C   UNL     1      20.089   2.921  47.582  1.00  0.00    +0.145 A 
ATOM      9  N   UNL     1      20.991   2.995  46.607  1.00  0.00    -0.218 NA
ATOM     10  C   UNL     1      22.236   2.739  47.018  1.00  0.00    +0.224 A 
ATOM     11  N   UNL     1      22.591   2.379  48.265  1.00  0.00    -0.236 NA
ATOM     12  C   UNL     1      21.617   2.283  49.209  1.00  0.00    +0.084 A 
ATOM     13  C   UNL     1      20.319   2.639  48.922  1.00  0.00    +0.058 A 
ATOM     14  H   UNL     1      18.348   3.174  46.412  1.00  0.00    +0.171 HD
ENDROOT
BRANCH   1  15
ATOM     15  C   UNL     1      17.215   2.855  51.328  1.00  0.00    +0.079 C 
ATOM     16  N   UNL     1      14.132   1.747  52.495  1.00  0.00    -0.192 NA
ATOM     17  C   UNL     1      15.239   1.714  52.149  1.00  0.00    +0.113 C 
ATOM     18  C   UNL     1      16.595   1.707  51.716  1.00  0.00    +0.153 C 
ATOM     19  C   UNL     1      17.271   0.453  51.690  1.00  0.00    +0.113 C 
ATOM     20  N   UNL     1      17.886  -0.530  51.628  1.00  0.00    -0.192 NA
BRANCH  15  21
ATOM     21  N   UNL     1      16.623   4.117  51.318  1.00  0.00    -0.396 N 
ATOM     22  H   UNL     1      15.789   4.204  50.734  1.00  0.00    +0.156 HD
ATOM     23  H   UNL     1      17.265   4.888  51.133  1.00  0.00    +0.156 HD
ENDBRANCH  15  21
ENDBRANCH   1  15
BRANCH  12  24
ATOM     24  C   UNL     1      22.081   1.666  50.455  1.00  0.00    +0.003 A 
ATOM     25  C   UNL     1      21.473   0.493  50.943  1.00  0.00    +0.013 A 
ATOM     26  C   UNL     1      23.097   2.260  51.231  1.00  0.00    +0.034 A 
ATOM     27  C   UNL     1      21.888  -0.089  52.143  1.00  0.00    +0.041 A 
ATOM     28  C   UNL     1      23.512   1.673  52.430  1.00  0.00    +0.077 A 
ATOM     29  C   UNL     1      22.909   0.502  52.877  1.00  0.00    +0.141 A 
ATOM     30 Cl   UNL     1      24.769   2.418  53.340  1.00  0.00    -0.081 Cl
ATOM     31  F   UNL     1      23.292  -0.071  54.028  1.00  0.00    -0.205 F 
ENDBRANCH  12  24
TORSDOF 3
ENDMDL
MODEL 9
REMARK VINA RESULT:    -6.915      3.408      4.787
REMARK INTER + INTRA:          -9.046
REMARK INTER:                  -8.320
REMARK INTRA:                  -0.726
REMARK UNBOUND:                -1.120
REMARK SMILES N#CC(C#N)=C(N)C(C#N)=C1C(=O)Nc2ncnc(-c3ccc(F)c(Cl)c3)c21
REMARK SMILES IDX 8 1 9 2 10 3 11 4 12 5 13 6 14 7 15 8 16 9 17 10 18 11 19 12
REMARK SMILES IDX 28 13 6 15 1 16 2 17 3 18 4 19 5 20 7 21 20 24 21 25 27 26
REMARK SMILES IDX 22 27 25 28 23 29 26 30 24 31
REMARK H PARENT 14 14 7 22 7 23
ROOT
ATOM      1  C   UNL     1      22.813   2.558  51.369  1.00  0.00    +0.091 C 
ATOM      2  C   UNL     1      24.129   2.107  51.040  1.00  0.00    +0.102 C 
ATOM      3  N   UNL     1      25.188   1.746  50.734  1.00  0.00    -0.192 NA
ATOM      4  C   UNL     1      21.998   1.861  52.193  1.00  0.00    +0.073 C 
ATOM      5  C   UNL     1      20.522   2.182  52.265  1.00  0.00    +0.259 C 
ATOM      6  O   UNL     1      19.952   3.169  51.843  1.00  0.00    -0.269 OA
ATOM      7  N   UNL     1      19.951   1.099  52.886  1.00  0.00    -0.306 N 
ATOM      8  C   UNL     1      20.905   0.193  53.317  1.00  0.00    +0.145 A 
ATOM      9  N   UNL     1      20.581  -0.897  54.008  1.00  0.00    -0.218 NA
ATOM     10  C   UNL     1      21.642  -1.589  54.431  1.00  0.00    +0.224 A 
ATOM     11  N   UNL     1      22.929  -1.238  54.255  1.00  0.00    -0.236 NA
ATOM     12  C   UNL     1      23.194  -0.092  53.572  1.00  0.00    +0.084 A 
ATOM     13  C   UNL     1      22.181   0.635  52.993  1.00  0.00    +0.058 A 
ATOM     14  H   UNL     1      18.968   1.004  53.093  1.00  0.00    +0.171 HD
ENDROOT
BRANCH   1  15
ATOM     15  C   UNL     1      22.412   3.804  50.673  1.00  0.00    +0.079 C 
ATOM     16  N   UNL     1      21.943   7.193  50.052  1.00  0.00    -0.192 NA
ATOM     17  C   UNL     1      22.263   6.223  50.602  1.00  0.00    +0.113 C 
ATOM     18  C   UNL     1      22.639   5.015  51.253  1.00  0.00    +0.153 C 
ATOM     19  C   UNL     1      23.248   5.121  52.537  1.00  0.00    +0.113 C 
ATOM     20  N   UNL     1      23.738   5.121  53.590  1.00  0.00    -0.192 NA
BRANCH  15  21
ATOM     21  N   UNL     1      21.817   3.615  49.427  1.00  0.00    -0.396 N 
ATOM     22  H   UNL     1      21.062   4.265  49.201  1.00  0.00    +0.156 HD
ATOM     23  H   UNL     1      21.529   2.657  49.233  1.00  0.00    +0.156 HD
ENDBRANCH  15  21
ENDBRANCH   1  15
BRANCH  12  24
ATOM     24  C   UNL     1      24.604   0.306  53.644  1.00  0.00    +0.003 A 
ATOM     25  C   UNL     1      24.958   1.620  54.007  1.00  0.00    +0.013 A 
ATOM     26  C   UNL     1      25.635  -0.586  53.289  1.00  0.00    +0.034 A 
ATOM     27  C   UNL     1      26.296   2.020  54.052  1.00  0.00    +0.041 A 
ATOM     28  C   UNL     1      26.973  -0.184  53.338  1.00  0.00    +0.077 A 
ATOM     29  C   UNL     1      27.296   1.114  53.722  1.00  0.00    +0.141 A 
ATOM     30 Cl   UNL     1      28.206  -1.308  52.915  1.00  0.00    -0.081 Cl
ATOM     31  F   UNL     1      28.575   1.518  53.769  1.00  0.00    -0.205 F 
ENDBRANCH  12  24
TORSDOF 3
ENDMDL
