MODEL 1
REMARK VINA RESULT:    -7.960      0.000      0.000
REMARK INTER + INTRA:         -11.602
REMARK INTER:                 -11.217
REMARK INTRA:                  -0.384
REMARK UNBOUND:                -0.384
REMARK SMILES CCN(C)CC/N=N/Nc1ccc2ncnc(-c3cccc(Cl)c3)c2c1
REMARK SMILES IDX 7 1 8 2 6 3 5 4 3 5 4 6 2 7 1 8 9 9 10 11 11 12 26 13 12 14
REMARK SMILES IDX 25 15 13 16 17 17 14 18 16 19 15 20 18 21 19 22 24 23 20 24
REMARK SMILES IDX 22 25 21 26 23 27
REMARK H PARENT 9 10
ROOT
ATOM      1  N   UNL     1      25.822  -0.650  56.422  1.00  0.00    -0.170 NA
ATOM      2  N   UNL     1      25.358  -0.946  55.305  1.00  0.00    -0.075 NA
ENDROOT
BRANCH   1   3
ATOM      3  C   UNL     1      27.173  -0.076  56.335  1.00  0.00    +0.184 C 
BRANCH   3   4
ATOM      4  C   UNL     1      27.518   0.224  54.863  1.00  0.00    +0.109 C 
BRANCH   4   5
ATOM      5  N   UNL     1      28.905   0.654  54.598  1.00  0.00    -0.305 NA
ATOM      6  C   UNL     1      28.917   1.928  53.878  1.00  0.00    +0.105 C 
BRANCH   5   7
ATOM      7  C   UNL     1      29.755  -0.354  53.951  1.00  0.00    +0.081 C 
ATOM      8  C   UNL     1      29.035  -1.511  53.264  1.00  0.00    +0.021 C 
ENDBRANCH   5   7
ENDBRANCH   4   5
ENDBRANCH   3   4
ENDBRANCH   1   3
BRANCH   2   9
ATOM      9  N   UNL     1      24.118  -1.404  55.547  1.00  0.00    -0.260 N 
ATOM     10  H   UNL     1      24.076  -2.339  55.938  1.00  0.00    +0.192 HD
BRANCH   9  11
ATOM     11  C   UNL     1      23.054  -1.002  54.727  1.00  0.00    +0.059 A 
ATOM     12  C   UNL     1      21.757  -1.491  54.882  1.00  0.00    +0.030 A 
ATOM     13  C   UNL     1      23.307  -0.173  53.629  1.00  0.00    +0.040 A 
ATOM     14  C   UNL     1      20.742  -1.129  53.986  1.00  0.00    +0.031 A 
ATOM     15  C   UNL     1      22.277   0.208  52.724  1.00  0.00    +0.029 A 
ATOM     16  C   UNL     1      20.980  -0.289  52.908  1.00  0.00    +0.074 A 
ATOM     17  C   UNL     1      22.433   1.049  51.608  1.00  0.00    +0.082 A 
ATOM     18  N   UNL     1      19.965  -0.002  52.085  1.00  0.00    -0.236 NA
ATOM     19  N   UNL     1      21.423   1.335  50.754  1.00  0.00    -0.236 NA
ATOM     20  C   UNL     1      20.237   0.791  51.042  1.00  0.00    +0.223 A 
BRANCH  17  21
ATOM     21  C   UNL     1      23.701   1.706  51.255  1.00  0.00    +0.002 A 
ATOM     22  C   UNL     1      24.927   1.258  51.783  1.00  0.00    +0.010 A 
ATOM     23  C   UNL     1      23.710   2.817  50.394  1.00  0.00    +0.030 A 
ATOM     24  C   UNL     1      26.129   1.887  51.444  1.00  0.00    +0.002 A 
ATOM     25  C   UNL     1      24.912   3.441  50.060  1.00  0.00    +0.041 A 
ATOM     26  C   UNL     1      26.121   2.978  50.577  1.00  0.00    +0.020 A 
ATOM     27 Cl   UNL     1      24.903   4.795  48.994  1.00  0.00    -0.084 Cl
ENDBRANCH  17  21
ENDBRANCH   9  11
ENDBRANCH   2   9
TORSDOF 7
ENDMDL
MODEL 2
REMARK VINA RESULT:    -7.941      2.419      4.724
REMARK INTER + INTRA:         -11.575
REMARK INTER:                 -10.993
REMARK INTRA:                  -0.582
REMARK UNBOUND:                -0.384
REMARK SMILES CCN(C)CC/N=N/Nc1ccc2ncnc(-c3cccc(Cl)c3)c2c1
REMARK SMILES IDX 7 1 8 2 6 3 5 4 3 5 4 6 2 7 1 8 9 9 10 11 11 12 26 13 12 14
REMARK SMILES IDX 25 15 13 16 17 17 14 18 16 19 15 20 18 21 19 22 24 23 20 24
REMARK SMILES IDX 22 25 21 26 23 27
REMARK H PARENT 9 10
ROOT
ATOM      1  N   UNL     1      27.554   2.257  53.595  1.00  0.00    -0.170 NA
ATOM      2  N   UNL     1      27.354   2.136  52.372  1.00  0.00    -0.075 NA
ENDROOT
BRANCH   1   3
ATOM      3  C   UNL     1      28.570   1.319  54.094  1.00  0.00    +0.184 C 
BRANCH   3   4
ATOM      4  C   UNL     1      27.917  -0.045  54.393  1.00  0.00    +0.109 C 
BRANCH   4   5
ATOM      5  N   UNL     1      28.640  -1.231  53.895  1.00  0.00    -0.305 NA
ATOM      6  C   UNL     1      30.003  -0.872  53.500  1.00  0.00    +0.105 C 
BRANCH   5   7
ATOM      7  C   UNL     1      27.944  -1.989  52.847  1.00  0.00    +0.081 C 
ATOM      8  C   UNL     1      26.600  -1.434  52.386  1.00  0.00    +0.021 C 
ENDBRANCH   5   7
ENDBRANCH   4   5
ENDBRANCH   3   4
ENDBRANCH   1   3
BRANCH   2   9
ATOM      9  N   UNL     1      26.450   3.082  52.065  1.00  0.00    -0.260 N 
ATOM     10  H   UNL     1      26.292   3.773  52.791  1.00  0.00    +0.192 HD
BRANCH   9  11
ATOM     11  C   UNL     1      25.368   2.768  51.230  1.00  0.00    +0.059 A 
ATOM     12  C   UNL     1      25.193   3.346  49.973  1.00  0.00    +0.030 A 
ATOM     13  C   UNL     1      24.350   1.936  51.707  1.00  0.00    +0.040 A 
ATOM     14  C   UNL     1      24.053   3.070  49.208  1.00  0.00    +0.031 A 
ATOM     15  C   UNL     1      23.195   1.642  50.929  1.00  0.00    +0.029 A 
ATOM     16  C   UNL     1      23.049   2.229  49.665  1.00  0.00    +0.074 A 
ATOM     17  C   UNL     1      22.133   0.806  51.317  1.00  0.00    +0.082 A 
ATOM     18  N   UNL     1      21.981   2.026  48.886  1.00  0.00    -0.236 NA
ATOM     19  N   UNL     1      21.036   0.604  50.550  1.00  0.00    -0.236 NA
ATOM     20  C   UNL     1      21.021   1.228  49.369  1.00  0.00    +0.223 A 
BRANCH  17  21
ATOM     21  C   UNL     1      22.104   0.064  52.588  1.00  0.00    +0.002 A 
ATOM     22  C   UNL     1      20.893  -0.410  53.128  1.00  0.00    +0.010 A 
ATOM     23  C   UNL     1      23.291  -0.167  53.302  1.00  0.00    +0.030 A 
ATOM     24  C   UNL     1      20.871  -1.113  54.336  1.00  0.00    +0.002 A 
ATOM     25  C   UNL     1      23.264  -0.869  54.508  1.00  0.00    +0.041 A 
ATOM     26  C   UNL     1      22.061  -1.347  55.025  1.00  0.00    +0.020 A 
ATOM     27 Cl   UNL     1      24.732  -1.151  55.364  1.00  0.00    -0.084 Cl
ENDBRANCH  17  21
ENDBRANCH   9  11
ENDBRANCH   2   9
TORSDOF 7
ENDMDL
MODEL 3
REMARK VINA RESULT:    -7.752      2.375      3.661
REMARK INTER + INTRA:         -11.309
REMARK INTER:                 -10.364
REMARK INTRA:                  -0.946
REMARK UNBOUND:                -0.384
REMARK SMILES CCN(C)CC/N=N/Nc1ccc2ncnc(-c3cccc(Cl)c3)c2c1
REMARK SMILES IDX 7 1 8 2 6 3 5 4 3 5 4 6 2 7 1 8 9 9 10 11 11 12 26 13 12 14
REMARK SMILES IDX 25 15 13 16 17 17 14 18 16 19 15 20 18 21 19 22 24 23 20 24
REMARK SMILES IDX 22 25 21 26 23 27
REMARK H PARENT 9 10
ROOT
ATOM      1  N   UNL     1      27.720   1.878  54.224  1.00  0.00    -0.170 NA
ATOM      2  N   UNL     1      26.559   1.649  54.610  1.00  0.00    -0.075 NA
ENDROOT
BRANCH   1   3
ATOM      3  C   UNL     1      28.661   0.816  54.610  1.00  0.00    +0.184 C 
BRANCH   3   4
ATOM      4  C   UNL     1      28.928  -0.106  53.405  1.00  0.00    +0.109 C 
BRANCH   4   5
ATOM      5  N   UNL     1      28.399  -1.480  53.511  1.00  0.00    -0.305 NA
ATOM      6  C   UNL     1      29.488  -2.455  53.435  1.00  0.00    +0.105 C 
BRANCH   5   7
ATOM      7  C   UNL     1      27.306  -1.800  52.583  1.00  0.00    +0.081 C 
ATOM      8  C   UNL     1      25.951  -1.169  52.887  1.00  0.00    +0.021 C 
ENDBRANCH   5   7
ENDBRANCH   4   5
ENDBRANCH   3   4
ENDBRANCH   1   3
BRANCH   2   9
ATOM      9  N   UNL     1      25.822   2.671  54.143  1.00  0.00    -0.260 N 
ATOM     10  H   UNL     1      25.607   3.390  54.825  1.00  0.00    +0.192 HD
BRANCH   9  11
ATOM     11  C   UNL     1      24.881   2.446  53.128  1.00  0.00    +0.059 A 
ATOM     12  C   UNL     1      23.825   1.546  53.264  1.00  0.00    +0.030 A 
ATOM     13  C   UNL     1      25.060   3.050  51.878  1.00  0.00    +0.040 A 
ATOM     14  C   UNL     1      22.959   1.288  52.195  1.00  0.00    +0.031 A 
ATOM     15  C   UNL     1      24.175   2.801  50.792  1.00  0.00    +0.029 A 
ATOM     16  C   UNL     1      23.117   1.899  50.959  1.00  0.00    +0.074 A 
ATOM     17  C   UNL     1      24.265   3.374  49.511  1.00  0.00    +0.082 A 
ATOM     18  N   UNL     1      22.260   1.590  49.979  1.00  0.00    -0.236 NA
ATOM     19  N   UNL     1      23.420   3.058  48.502  1.00  0.00    -0.236 NA
ATOM     20  C   UNL     1      22.457   2.180  48.794  1.00  0.00    +0.223 A 
BRANCH  17  21
ATOM     21  C   UNL     1      25.279   4.372  49.135  1.00  0.00    +0.002 A 
ATOM     22  C   UNL     1      26.642   4.029  49.043  1.00  0.00    +0.010 A 
ATOM     23  C   UNL     1      24.906   5.702  48.879  1.00  0.00    +0.030 A 
ATOM     24  C   UNL     1      27.601   4.981  48.686  1.00  0.00    +0.002 A 
ATOM     25  C   UNL     1      25.867   6.649  48.524  1.00  0.00    +0.041 A 
ATOM     26  C   UNL     1      27.210   6.294  48.422  1.00  0.00    +0.020 A 
ATOM     27 Cl   UNL     1      25.387   8.273  48.205  1.00  0.00    -0.084 Cl
ENDBRANCH  17  21
ENDBRANCH   9  11
ENDBRANCH   2   9
TORSDOF 7
ENDMDL
MODEL 4
REMARK VINA RESULT:    -7.683      2.421      5.264
REMARK INTER + INTRA:         -11.211
REMARK INTER:                  -9.623
REMARK INTRA:                  -1.588
REMARK UNBOUND:                -0.384
REMARK SMILES CCN(C)CC/N=N/Nc1ccc2ncnc(-c3cccc(Cl)c3)c2c1
REMARK SMILES IDX 7 1 8 2 6 3 5 4 3 5 4 6 2 7 1 8 9 9 10 11 11 12 26 13 12 14
REMARK SMILES IDX 25 15 13 16 17 17 14 18 16 19 15 20 18 21 19 22 24 23 20 24
REMARK SMILES IDX 22 25 21 26 23 27
REMARK H PARENT 9 10
ROOT
ATOM      1  N   UNL     1      26.859   2.868  51.104  1.00  0.00    -0.170 NA
ATOM      2  N   UNL     1      26.304   1.754  51.163  1.00  0.00    -0.075 NA
ENDROOT
BRANCH   1   3
ATOM      3  C   UNL     1      26.602   3.557  49.831  1.00  0.00    +0.184 C 
BRANCH   3   4
ATOM      4  C   UNL     1      25.574   4.684  50.047  1.00  0.00    +0.109 C 
BRANCH   4   5
ATOM      5  N   UNL     1      24.160   4.266  50.111  1.00  0.00    -0.305 NA
ATOM      6  C   UNL     1      23.521   4.419  48.803  1.00  0.00    +0.105 C 
BRANCH   5   7
ATOM      7  C   UNL     1      23.375   4.889  51.185  1.00  0.00    +0.081 C 
ATOM      8  C   UNL     1      23.567   4.316  52.586  1.00  0.00    +0.021 C 
ENDBRANCH   5   7
ENDBRANCH   4   5
ENDBRANCH   3   4
ENDBRANCH   1   3
BRANCH   2   9
ATOM      9  N   UNL     1      26.590   1.281  52.387  1.00  0.00    -0.260 N 
ATOM     10  H   UNL     1      27.548   0.973  52.515  1.00  0.00    +0.192 HD
BRANCH   9  11
ATOM     11  C   UNL     1      25.599   0.619  53.128  1.00  0.00    +0.059 A 
ATOM     12  C   UNL     1      25.897  -0.310  54.124  1.00  0.00    +0.030 A 
ATOM     13  C   UNL     1      24.254   0.795  52.787  1.00  0.00    +0.040 A 
ATOM     14  C   UNL     1      24.877  -1.011  54.779  1.00  0.00    +0.031 A 
ATOM     15  C   UNL     1      23.213   0.094  53.458  1.00  0.00    +0.029 A 
ATOM     16  C   UNL     1      23.539  -0.827  54.462  1.00  0.00    +0.074 A 
ATOM     17  C   UNL     1      21.837   0.219  53.197  1.00  0.00    +0.082 A 
ATOM     18  N   UNL     1      22.621  -1.545  55.118  1.00  0.00    -0.236 NA
ATOM     19  N   UNL     1      20.896  -0.513  53.837  1.00  0.00    -0.236 NA
ATOM     20  C   UNL     1      21.342  -1.359  54.770  1.00  0.00    +0.223 A 
BRANCH  17  21
ATOM     21  C   UNL     1      21.277   1.156  52.209  1.00  0.00    +0.002 A 
ATOM     22  C   UNL     1      20.481   2.246  52.607  1.00  0.00    +0.010 A 
ATOM     23  C   UNL     1      21.511   0.963  50.837  1.00  0.00    +0.030 A 
ATOM     24  C   UNL     1      19.952   3.132  51.664  1.00  0.00    +0.002 A 
ATOM     25  C   UNL     1      20.980   1.849  49.899  1.00  0.00    +0.041 A 
ATOM     26  C   UNL     1      20.206   2.935  50.307  1.00  0.00    +0.020 A 
ATOM     27 Cl   UNL     1      21.287   1.602  48.222  1.00  0.00    -0.084 Cl
ENDBRANCH  17  21
ENDBRANCH   9  11
ENDBRANCH   2   9
TORSDOF 7
ENDMDL
MODEL 5
REMARK VINA RESULT:    -7.594      2.043      3.108
REMARK INTER + INTRA:         -11.086
REMARK INTER:                  -9.876
REMARK INTRA:                  -1.210
REMARK UNBOUND:                -0.384
REMARK SMILES CCN(C)CC/N=N/Nc1ccc2ncnc(-c3cccc(Cl)c3)c2c1
REMARK SMILES IDX 7 1 8 2 6 3 5 4 3 5 4 6 2 7 1 8 9 9 10 11 11 12 26 13 12 14
REMARK SMILES IDX 25 15 13 16 17 17 14 18 16 19 15 20 18 21 19 22 24 23 20 24
REMARK SMILES IDX 22 25 21 26 23 27
REMARK H PARENT 9 10
ROOT
ATOM      1  N   UNL     1      25.498  -0.939  53.214  1.00  0.00    -0.170 NA
ATOM      2  N   UNL     1      24.622  -0.085  53.447  1.00  0.00    -0.075 NA
ENDROOT
BRANCH   1   3
ATOM      3  C   UNL     1      26.657  -0.375  52.507  1.00  0.00    +0.184 C 
BRANCH   3   4
ATOM      4  C   UNL     1      26.203   0.792  51.609  1.00  0.00    +0.109 C 
BRANCH   4   5
ATOM      5  N   UNL     1      27.090   1.972  51.584  1.00  0.00    -0.305 NA
ATOM      6  C   UNL     1      27.640   2.228  52.916  1.00  0.00    +0.105 C 
BRANCH   5   7
ATOM      7  C   UNL     1      26.503   3.179  50.987  1.00  0.00    +0.081 C 
ATOM      8  C   UNL     1      26.514   3.258  49.463  1.00  0.00    +0.021 C 
ENDBRANCH   5   7
ENDBRANCH   4   5
ENDBRANCH   3   4
ENDBRANCH   1   3
BRANCH   2   9
ATOM      9  N   UNL     1      23.666  -0.737  54.131  1.00  0.00    -0.260 N 
ATOM     10  H   UNL     1      23.958  -1.618  54.540  1.00  0.00    +0.192 HD
BRANCH   9  11
ATOM     11  C   UNL     1      22.326  -0.627  53.733  1.00  0.00    +0.059 A 
ATOM     12  C   UNL     1      21.284  -1.258  54.411  1.00  0.00    +0.030 A 
ATOM     13  C   UNL     1      22.015   0.039  52.543  1.00  0.00    +0.040 A 
ATOM     14  C   UNL     1      19.970  -1.192  53.929  1.00  0.00    +0.031 A 
ATOM     15  C   UNL     1      20.680   0.120  52.055  1.00  0.00    +0.029 A 
ATOM     16  C   UNL     1      19.650  -0.515  52.761  1.00  0.00    +0.074 A 
ATOM     17  C   UNL     1      20.271   0.781  50.883  1.00  0.00    +0.082 A 
ATOM     18  N   UNL     1      18.375  -0.510  52.354  1.00  0.00    -0.236 NA
ATOM     19  N   UNL     1      18.991   0.780  50.446  1.00  0.00    -0.236 NA
ATOM     20  C   UNL     1      18.108   0.132  51.210  1.00  0.00    +0.223 A 
BRANCH  17  21
ATOM     21  C   UNL     1      21.186   1.540  50.016  1.00  0.00    +0.002 A 
ATOM     22  C   UNL     1      21.513   1.085  48.725  1.00  0.00    +0.010 A 
ATOM     23  C   UNL     1      21.772   2.732  50.473  1.00  0.00    +0.030 A 
ATOM     24  C   UNL     1      22.383   1.810  47.906  1.00  0.00    +0.002 A 
ATOM     25  C   UNL     1      22.641   3.452  49.652  1.00  0.00    +0.041 A 
ATOM     26  C   UNL     1      22.944   2.999  48.370  1.00  0.00    +0.020 A 
ATOM     27 Cl   UNL     1      23.341   4.917  50.228  1.00  0.00    -0.084 Cl
ENDBRANCH  17  21
ENDBRANCH   9  11
ENDBRANCH   2   9
TORSDOF 7
ENDMDL
MODEL 6
REMARK VINA RESULT:    -7.569      2.645      5.726
REMARK INTER + INTRA:         -11.050
REMARK INTER:                 -10.366
REMARK INTRA:                  -0.684
REMARK UNBOUND:                -0.384
REMARK SMILES CCN(C)CC/N=N/Nc1ccc2ncnc(-c3cccc(Cl)c3)c2c1
REMARK SMILES IDX 7 1 8 2 6 3 5 4 3 5 4 6 2 7 1 8 9 9 10 11 11 12 26 13 12 14
REMARK SMILES IDX 25 15 13 16 17 17 14 18 16 19 15 20 18 21 19 22 24 23 20 24
REMARK SMILES IDX 22 25 21 26 23 27
REMARK H PARENT 9 10
ROOT
ATOM      1  N   UNL     1      22.778   3.964  50.004  1.00  0.00    -0.170 NA
ATOM      2  N   UNL     1      22.500   3.430  51.094  1.00  0.00    -0.075 NA
ENDROOT
BRANCH   1   3
ATOM      3  C   UNL     1      23.112   5.389  50.145  1.00  0.00    +0.184 C 
BRANCH   3   4
ATOM      4  C   UNL     1      24.625   5.547  50.390  1.00  0.00    +0.109 C 
BRANCH   4   5
ATOM      5  N   UNL     1      25.510   4.779  49.492  1.00  0.00    -0.305 NA
ATOM      6  C   UNL     1      26.178   3.705  50.228  1.00  0.00    +0.105 C 
BRANCH   5   7
ATOM      7  C   UNL     1      26.457   5.587  48.711  1.00  0.00    +0.081 C 
ATOM      8  C   UNL     1      27.881   5.051  48.607  1.00  0.00    +0.021 C 
ENDBRANCH   5   7
ENDBRANCH   4   5
ENDBRANCH   3   4
ENDBRANCH   1   3
BRANCH   2   9
ATOM      9  N   UNL     1      22.270   2.138  50.807  1.00  0.00    -0.260 N 
ATOM     10  H   UNL     1      21.616   1.978  50.048  1.00  0.00    +0.192 HD
BRANCH   9  11
ATOM     11  C   UNL     1      22.316   1.178  51.828  1.00  0.00    +0.059 A 
ATOM     12  C   UNL     1      21.179   0.521  52.297  1.00  0.00    +0.030 A 
ATOM     13  C   UNL     1      23.522   0.944  52.498  1.00  0.00    +0.040 A 
ATOM     14  C   UNL     1      21.258  -0.368  53.378  1.00  0.00    +0.031 A 
ATOM     15  C   UNL     1      23.610   0.032  53.588  1.00  0.00    +0.029 A 
ATOM     16  C   UNL     1      22.454  -0.622  54.033  1.00  0.00    +0.074 A 
ATOM     17  C   UNL     1      24.778  -0.279  54.306  1.00  0.00    +0.082 A 
ATOM     18  N   UNL     1      22.449  -1.470  55.068  1.00  0.00    -0.236 NA
ATOM     19  N   UNL     1      24.787  -1.119  55.367  1.00  0.00    -0.236 NA
ATOM     20  C   UNL     1      23.615  -1.672  55.691  1.00  0.00    +0.223 A 
BRANCH  17  21
ATOM     21  C   UNL     1      26.104   0.268  53.981  1.00  0.00    +0.002 A 
ATOM     22  C   UNL     1      26.311   1.655  53.858  1.00  0.00    +0.010 A 
ATOM     23  C   UNL     1      27.193  -0.592  53.762  1.00  0.00    +0.030 A 
ATOM     24  C   UNL     1      27.573   2.170  53.548  1.00  0.00    +0.002 A 
ATOM     25  C   UNL     1      28.451  -0.074  53.451  1.00  0.00    +0.041 A 
ATOM     26  C   UNL     1      28.646   1.302  53.349  1.00  0.00    +0.020 A 
ATOM     27 Cl   UNL     1      29.776  -1.145  53.197  1.00  0.00    -0.084 Cl
ENDBRANCH  17  21
ENDBRANCH   9  11
ENDBRANCH   2   9
TORSDOF 7
ENDMDL
MODEL 7
REMARK VINA RESULT:    -7.460      2.049      3.218
REMARK INTER + INTRA:         -10.897
REMARK INTER:                  -9.806
REMARK INTRA:                  -1.091
REMARK UNBOUND:                -0.384
REMARK SMILES CCN(C)CC/N=N/Nc1ccc2ncnc(-c3cccc(Cl)c3)c2c1
REMARK SMILES IDX 7 1 8 2 6 3 5 4 3 5 4 6 2 7 1 8 9 9 10 11 11 12 26 13 12 14
REMARK SMILES IDX 25 15 13 16 17 17 14 18 16 19 15 20 18 21 19 22 24 23 20 24
REMARK SMILES IDX 22 25 21 26 23 27
REMARK H PARENT 9 10
ROOT
ATOM      1  N   UNL     1      22.502  -1.529  55.439  1.00  0.00    -0.170 NA
ATOM      2  N   UNL     1      22.016  -0.710  54.636  1.00  0.00    -0.075 NA
ENDROOT
BRANCH   1   3
ATOM      3  C   UNL     1      23.952  -1.354  55.611  1.00  0.00    +0.184 C 
BRANCH   3   4
ATOM      4  C   UNL     1      24.572  -0.830  54.302  1.00  0.00    +0.109 C 
BRANCH   4   5
ATOM      5  N   UNL     1      26.047  -0.794  54.252  1.00  0.00    -0.305 NA
ATOM      6  C   UNL     1      26.570   0.148  55.244  1.00  0.00    +0.105 C 
BRANCH   5   7
ATOM      7  C   UNL     1      26.620  -0.567  52.919  1.00  0.00    +0.081 C 
ATOM      8  C   UNL     1      26.028   0.583  52.112  1.00  0.00    +0.021 C 
ENDBRANCH   5   7
ENDBRANCH   4   5
ENDBRANCH   3   4
ENDBRANCH   1   3
BRANCH   2   9
ATOM      9  N   UNL     1      20.697  -0.965  54.627  1.00  0.00    -0.260 N 
ATOM     10  H   UNL     1      20.430  -1.853  55.038  1.00  0.00    +0.192 HD
BRANCH   9  11
ATOM     11  C   UNL     1      19.899  -0.474  53.584  1.00  0.00    +0.059 A 
ATOM     12  C   UNL     1      18.702  -1.078  53.202  1.00  0.00    +0.030 A 
ATOM     13  C   UNL     1      20.365   0.590  52.804  1.00  0.00    +0.040 A 
ATOM     14  C   UNL     1      17.980  -0.606  52.098  1.00  0.00    +0.031 A 
ATOM     15  C   UNL     1      19.629   1.082  51.689  1.00  0.00    +0.029 A 
ATOM     16  C   UNL     1      18.424   0.463  51.333  1.00  0.00    +0.074 A 
ATOM     17  C   UNL     1      20.009   2.154  50.863  1.00  0.00    +0.082 A 
ATOM     18  N   UNL     1      17.690   0.847  50.283  1.00  0.00    -0.236 NA
ATOM     19  N   UNL     1      19.289   2.543  49.785  1.00  0.00    -0.236 NA
ATOM     20  C   UNL     1      18.161   1.865  49.554  1.00  0.00    +0.223 A 
BRANCH  17  21
ATOM     21  C   UNL     1      21.218   2.963  51.082  1.00  0.00    +0.002 A 
ATOM     22  C   UNL     1      21.256   3.967  52.068  1.00  0.00    +0.010 A 
ATOM     23  C   UNL     1      22.360   2.761  50.288  1.00  0.00    +0.030 A 
ATOM     24  C   UNL     1      22.408   4.732  52.271  1.00  0.00    +0.002 A 
ATOM     25  C   UNL     1      23.507   3.529  50.494  1.00  0.00    +0.041 A 
ATOM     26  C   UNL     1      23.537   4.509  51.484  1.00  0.00    +0.020 A 
ATOM     27 Cl   UNL     1      24.901   3.259  49.517  1.00  0.00    -0.084 Cl
ENDBRANCH  17  21
ENDBRANCH   9  11
ENDBRANCH   2   9
TORSDOF 7
ENDMDL
MODEL 8
REMARK VINA RESULT:    -7.313      2.293      6.579
REMARK INTER + INTRA:         -10.690
REMARK INTER:                  -9.202
REMARK INTRA:                  -1.488
REMARK UNBOUND:                -0.384
REMARK SMILES CCN(C)CC/N=N/Nc1ccc2ncnc(-c3cccc(Cl)c3)c2c1
REMARK SMILES IDX 7 1 8 2 6 3 5 4 3 5 4 6 2 7 1 8 9 9 10 11 11 12 26 13 12 14
REMARK SMILES IDX 25 15 13 16 17 17 14 18 16 19 15 20 18 21 19 22 24 23 20 24
REMARK SMILES IDX 22 25 21 26 23 27
REMARK H PARENT 9 10
ROOT
ATOM      1  N   UNL     1      18.232  -0.766  52.205  1.00  0.00    -0.170 NA
ATOM      2  N   UNL     1      18.997  -0.005  52.827  1.00  0.00    -0.075 NA
ENDROOT
BRANCH   1   3
ATOM      3  C   UNL     1      17.621  -0.115  51.037  1.00  0.00    +0.184 C 
BRANCH   3   4
ATOM      4  C   UNL     1      16.997   1.230  51.457  1.00  0.00    +0.109 C 
BRANCH   4   5
ATOM      5  N   UNL     1      17.428   2.412  50.686  1.00  0.00    -0.305 NA
ATOM      6  C   UNL     1      18.256   2.008  49.548  1.00  0.00    +0.105 C 
BRANCH   5   7
ATOM      7  C   UNL     1      18.059   3.475  51.478  1.00  0.00    +0.081 C 
ATOM      8  C   UNL     1      19.554   3.327  51.746  1.00  0.00    +0.021 C 
ENDBRANCH   5   7
ENDBRANCH   4   5
ENDBRANCH   3   4
ENDBRANCH   1   3
BRANCH   2   9
ATOM      9  N   UNL     1      19.506  -0.751  53.822  1.00  0.00    -0.260 N 
ATOM     10  H   UNL     1      18.926  -0.811  54.652  1.00  0.00    +0.192 HD
BRANCH   9  11
ATOM     11  C   UNL     1      20.895  -0.818  54.003  1.00  0.00    +0.059 A 
ATOM     12  C   UNL     1      21.499  -1.715  54.883  1.00  0.00    +0.030 A 
ATOM     13  C   UNL     1      21.716   0.126  53.377  1.00  0.00    +0.040 A 
ATOM     14  C   UNL     1      22.883  -1.689  55.098  1.00  0.00    +0.031 A 
ATOM     15  C   UNL     1      23.125   0.149  53.582  1.00  0.00    +0.029 A 
ATOM     16  C   UNL     1      23.707  -0.770  54.464  1.00  0.00    +0.074 A 
ATOM     17  C   UNL     1      24.028   1.045  52.983  1.00  0.00    +0.082 A 
ATOM     18  N   UNL     1      25.017  -0.794  54.732  1.00  0.00    -0.236 NA
ATOM     19  N   UNL     1      25.353   1.048  53.257  1.00  0.00    -0.236 NA
ATOM     20  C   UNL     1      25.778   0.121  54.121  1.00  0.00    +0.223 A 
BRANCH  17  21
ATOM     21  C   UNL     1      23.632   2.065  51.999  1.00  0.00    +0.002 A 
ATOM     22  C   UNL     1      23.542   3.424  52.353  1.00  0.00    +0.010 A 
ATOM     23  C   UNL     1      23.310   1.695  50.682  1.00  0.00    +0.030 A 
ATOM     24  C   UNL     1      23.164   4.389  51.415  1.00  0.00    +0.002 A 
ATOM     25  C   UNL     1      22.933   2.661  49.749  1.00  0.00    +0.041 A 
ATOM     26  C   UNL     1      22.863   4.006  50.109  1.00  0.00    +0.020 A 
ATOM     27 Cl   UNL     1      22.553   2.187  48.137  1.00  0.00    -0.084 Cl
ENDBRANCH  17  21
ENDBRANCH   9  11
ENDBRANCH   2   9
TORSDOF 7
ENDMDL
MODEL 9
REMARK VINA RESULT:    -7.236      2.590      4.189
REMARK INTER + INTRA:         -10.581
REMARK INTER:                  -9.381
REMARK INTRA:                  -1.200
REMARK UNBOUND:                -0.384
REMARK SMILES CCN(C)CC/N=N/Nc1ccc2ncnc(-c3cccc(Cl)c3)c2c1
REMARK SMILES IDX 7 1 8 2 6 3 5 4 3 5 4 6 2 7 1 8 9 9 10 11 11 12 26 13 12 14
REMARK SMILES IDX 25 15 13 16 17 17 14 18 16 19 15 20 18 21 19 22 24 23 20 24
REMARK SMILES IDX 22 25 21 26 23 27
REMARK H PARENT 9 10
ROOT
ATOM      1  N   UNL     1      21.729  -1.275  55.088  1.00  0.00    -0.170 NA
ATOM      2  N   UNL     1      21.167  -1.629  54.035  1.00  0.00    -0.075 NA
ENDROOT
BRANCH   1   3
ATOM      3  C   UNL     1      23.187  -1.158  54.935  1.00  0.00    +0.184 C 
BRANCH   3   4
ATOM      4  C   UNL     1      23.515  -0.443  53.609  1.00  0.00    +0.109 C 
BRANCH   4   5
ATOM      5  N   UNL     1      24.949  -0.282  53.299  1.00  0.00    -0.305 NA
ATOM      6  C   UNL     1      25.747  -0.332  54.526  1.00  0.00    +0.105 C 
BRANCH   5   7
ATOM      7  C   UNL     1      25.279   0.887  52.473  1.00  0.00    +0.081 C 
ATOM      8  C   UNL     1      24.731   2.230  52.946  1.00  0.00    +0.021 C 
ENDBRANCH   5   7
ENDBRANCH   4   5
ENDBRANCH   3   4
ENDBRANCH   1   3
BRANCH   2   9
ATOM      9  N   UNL     1      19.854  -1.641  54.322  1.00  0.00    -0.260 N 
ATOM     10  H   UNL     1      19.551  -2.412  54.907  1.00  0.00    +0.192 HD
BRANCH   9  11
ATOM     11  C   UNL     1      18.932  -1.141  53.391  1.00  0.00    +0.059 A 
ATOM     12  C   UNL     1      17.620  -1.605  53.305  1.00  0.00    +0.030 A 
ATOM     13  C   UNL     1      19.360  -0.226  52.423  1.00  0.00    +0.040 A 
ATOM     14  C   UNL     1      16.758  -1.140  52.304  1.00  0.00    +0.031 A 
ATOM     15  C   UNL     1      18.484   0.260  51.412  1.00  0.00    +0.029 A 
ATOM     16  C   UNL     1      17.168  -0.216  51.354  1.00  0.00    +0.074 A 
ATOM     17  C   UNL     1      18.819   1.191  50.413  1.00  0.00    +0.082 A 
ATOM     18  N   UNL     1      16.294   0.170  50.418  1.00  0.00    -0.236 NA
ATOM     19  N   UNL     1      17.954   1.577  49.446  1.00  0.00    -0.236 NA
ATOM     20  C   UNL     1      16.731   1.043  49.503  1.00  0.00    +0.223 A 
BRANCH  17  21
ATOM     21  C   UNL     1      20.135   1.841  50.314  1.00  0.00    +0.002 A 
ATOM     22  C   UNL     1      21.125   1.357  49.437  1.00  0.00    +0.010 A 
ATOM     23  C   UNL     1      20.440   2.954  51.117  1.00  0.00    +0.030 A 
ATOM     24  C   UNL     1      22.374   1.978  49.349  1.00  0.00    +0.002 A 
ATOM     25  C   UNL     1      21.688   3.570  51.025  1.00  0.00    +0.041 A 
ATOM     26  C   UNL     1      22.654   3.090  50.142  1.00  0.00    +0.020 A 
ATOM     27 Cl   UNL     1      22.038   4.939  52.011  1.00  0.00    -0.084 Cl
ENDBRANCH  17  21
ENDBRANCH   9  11
ENDBRANCH   2   9
TORSDOF 7
ENDMDL
