REMARK SMILES C[N+](C)(C)C[C@H](O)COc1nc2cc(Cl)ccc2s1
REMARK SMILES IDX 6 1 5 2 2 3 1 4 3 5 4 6 7 7 8 9 9 10 10 11 11 12 19 13 12 14
REMARK SMILES IDX 18 15 13 16 17 17 14 18 16 19 15 20
REMARK H PARENT 7 8
ROOT
ATOM      1  C   UNL     1      -1.377   0.004   0.335  1.00  0.00    +0.207 C 
ENDROOT
BRANCH   1   2
ATOM      2  C   UNL     1      -2.530   0.405  -0.607  1.00  0.00    +0.299 C 
BRANCH   2   3
ATOM      3  N   UNL     1      -3.958   0.144  -0.050  1.00  0.00    -0.329 N 
ATOM      4  C   UNL     1      -4.209  -1.339   0.175  1.00  0.00    +0.334 C 
ATOM      5  C   UNL     1      -4.962   0.658  -1.084  1.00  0.00    +0.334 C 
ATOM      6  C   UNL     1      -4.197   0.901   1.258  1.00  0.00    +0.334 C 
ENDBRANCH   2   3
ENDBRANCH   1   2
BRANCH   1   7
ATOM      7  O   UNL     1      -1.382   0.840   1.500  1.00  0.00    -0.384 OA
ATOM      8  H   UNL     1      -0.554   0.648   1.991  1.00  0.00    +0.211 HD
ENDBRANCH   1   7
BRANCH   1   9
ATOM      9  C   UNL     1      -0.023   0.166  -0.376  1.00  0.00    +0.270 C 
BRANCH   9  10
ATOM     10  O   UNL     1       0.970  -0.301   0.534  1.00  0.00    -0.467 OA
BRANCH  10  11
ATOM     11  C   UNL     1       2.254  -0.228   0.167  1.00  0.00    +0.274 A 
ATOM     12  N   UNL     1       3.159  -0.604   1.037  1.00  0.00    -0.203 NA
ATOM     13  S   UNL     1       2.863   0.306  -1.344  1.00  0.00    -0.077 S 
ATOM     14  C   UNL     1       4.429  -0.469   0.501  1.00  0.00    +0.087 A 
ATOM     15  C   UNL     1       4.473   0.020  -0.805  1.00  0.00    +0.058 A 
ATOM     16  C   UNL     1       5.637  -0.778   1.156  1.00  0.00    +0.050 A 
ATOM     17  C   UNL     1       5.685   0.214  -1.487  1.00  0.00    +0.023 A 
ATOM     18  C   UNL     1       6.846  -0.588   0.484  1.00  0.00    +0.043 A 
ATOM     19  C   UNL     1       6.873  -0.100  -0.819  1.00  0.00    +0.022 A 
ATOM     20 Cl   UNL     1       8.325  -0.965   1.280  1.00  0.00    -0.084 Cl
ENDBRANCH  10  11
ENDBRANCH   9  10
ENDBRANCH   1   9
TORSDOF 6
