MODEL 1
REMARK VINA RESULT:    -8.480      0.000      0.000
REMARK INTER + INTRA:         -14.219
REMARK INTER:                 -12.446
REMARK INTRA:                  -1.773
REMARK UNBOUND:                -1.773
REMARK SMILES CCN(CC/N=N/Nc1ccc2ncnc(-c3cccc(Cl)c3)c2c1)c1[nH]c(C)cc1C
REMARK SMILES IDX 6 1 7 2 5 3 4 4 3 5 2 6 1 7 26 8 27 9 31 10 28 11 30 12
REMARK SMILES IDX 32 14 29 15 8 16 9 18 10 19 25 20 11 21 24 22 12 23 16 24
REMARK SMILES IDX 13 25 15 26 14 27 17 28 18 29 23 30 19 31 21 32 20 33 22 34
REMARK H PARENT 27 13 8 17
ROOT
ATOM      1  N   UNL     1      22.033   3.540  49.600  1.00  0.00    -0.169 NA
ATOM      2  N   UNL     1      22.280   3.127  50.744  1.00  0.00    -0.075 NA
ENDROOT
BRANCH   1   3
ATOM      3  C   UNL     1      21.892   5.008  49.522  1.00  0.00    +0.190 C 
BRANCH   3   4
ATOM      4  C   UNL     1      22.349   5.763  50.780  1.00  0.00    +0.143 C 
BRANCH   4   5
ATOM      5  N   UNL     1      23.710   6.323  50.670  1.00  0.00    -0.356 N 
BRANCH   5   6
ATOM      6  C   UNL     1      23.815   7.784  50.751  1.00  0.00    +0.114 C 
ATOM      7  C   UNL     1      22.876   8.447  49.747  1.00  0.00    +0.027 C 
ENDBRANCH   5   6
BRANCH   5   8
ATOM      8  C   UNL     1      24.736   5.567  50.170  1.00  0.00    +0.109 A 
ATOM      9  N   UNL     1      25.021   4.355  50.758  1.00  0.00    -0.346 N 
ATOM     10  C   UNL     1      25.676   5.756  49.166  1.00  0.00    -0.009 A 
ATOM     11  C   UNL     1      26.109   3.766  50.170  1.00  0.00    +0.014 A 
ATOM     12  C   UNL     1      26.527   4.611  49.169  1.00  0.00    +0.028 A 
ATOM     13  H   UNL     1      24.531   3.990  51.558  1.00  0.00    +0.168 HD
ATOM     14  C   UNL     1      25.814   6.890  48.218  1.00  0.00    +0.048 C 
ATOM     15  C   UNL     1      26.634   2.462  50.624  1.00  0.00    +0.064 C 
ENDBRANCH   5   8
ENDBRANCH   4   5
ENDBRANCH   3   4
ENDBRANCH   1   3
BRANCH   2  16
ATOM     16  N   UNL     1      22.562   1.816  50.612  1.00  0.00    -0.260 N 
ATOM     17  H   UNL     1      23.327   1.636  49.970  1.00  0.00    +0.192 HD
BRANCH  16  18
ATOM     18  C   UNL     1      22.551   1.042  51.782  1.00  0.00    +0.059 A 
ATOM     19  C   UNL     1      21.366   0.527  52.307  1.00  0.00    +0.030 A 
ATOM     20  C   UNL     1      23.747   0.725  52.435  1.00  0.00    +0.040 A 
ATOM     21  C   UNL     1      21.387  -0.291  53.442  1.00  0.00    +0.031 A 
ATOM     22  C   UNL     1      23.766  -0.067  53.617  1.00  0.00    +0.029 A 
ATOM     23  C   UNL     1      22.567  -0.601  54.104  1.00  0.00    +0.074 A 
ATOM     24  C   UNL     1      24.906  -0.391  54.378  1.00  0.00    +0.082 A 
ATOM     25  N   UNL     1      22.504  -1.392  55.180  1.00  0.00    -0.236 NA
ATOM     26  N   UNL     1      24.864  -1.207  55.456  1.00  0.00    -0.236 NA
ATOM     27  C   UNL     1      23.659  -1.667  55.799  1.00  0.00    +0.223 A 
BRANCH  24  28
ATOM     28  C   UNL     1      26.247   0.157  54.118  1.00  0.00    +0.002 A 
ATOM     29  C   UNL     1      26.469   1.546  54.131  1.00  0.00    +0.010 A 
ATOM     30  C   UNL     1      27.327  -0.685  53.805  1.00  0.00    +0.030 A 
ATOM     31  C   UNL     1      27.735   2.077  53.866  1.00  0.00    +0.002 A 
ATOM     32  C   UNL     1      28.593  -0.149  53.548  1.00  0.00    +0.041 A 
ATOM     33  C   UNL     1      28.801   1.228  53.579  1.00  0.00    +0.020 A 
ATOM     34 Cl   UNL     1      29.906  -1.204  53.186  1.00  0.00    -0.084 Cl
ENDBRANCH  24  28
ENDBRANCH  16  18
ENDBRANCH   2  16
TORSDOF 8
ENDMDL
MODEL 2
REMARK VINA RESULT:    -8.375      1.373      2.262
REMARK INTER + INTRA:         -14.065
REMARK INTER:                 -11.948
REMARK INTRA:                  -2.116
REMARK UNBOUND:                -1.773
REMARK SMILES CCN(CC/N=N/Nc1ccc2ncnc(-c3cccc(Cl)c3)c2c1)c1[nH]c(C)cc1C
REMARK SMILES IDX 6 1 7 2 5 3 4 4 3 5 2 6 1 7 26 8 27 9 31 10 28 11 30 12
REMARK SMILES IDX 32 14 29 15 8 16 9 18 10 19 25 20 11 21 24 22 12 23 16 24
REMARK SMILES IDX 13 25 15 26 14 27 17 28 18 29 23 30 19 31 21 32 20 33 22 34
REMARK H PARENT 27 13 8 17
ROOT
ATOM      1  N   UNL     1      22.775   3.845  48.359  1.00  0.00    -0.169 NA
ATOM      2  N   UNL     1      21.914   3.344  49.099  1.00  0.00    -0.075 NA
ENDROOT
BRANCH   1   3
ATOM      3  C   UNL     1      22.747   5.322  48.340  1.00  0.00    +0.190 C 
BRANCH   3   4
ATOM      4  C   UNL     1      22.978   5.985  49.707  1.00  0.00    +0.143 C 
BRANCH   4   5
ATOM      5  N   UNL     1      24.136   5.438  50.440  1.00  0.00    -0.356 N 
BRANCH   5   6
ATOM      6  C   UNL     1      24.014   5.399  51.902  1.00  0.00    +0.114 C 
ATOM      7  C   UNL     1      22.825   4.541  52.320  1.00  0.00    +0.027 C 
ENDBRANCH   5   6
BRANCH   5   8
ATOM      8  C   UNL     1      25.355   5.321  49.828  1.00  0.00    +0.109 A 
ATOM      9  N   UNL     1      25.919   6.433  49.243  1.00  0.00    -0.346 N 
ATOM     10  C   UNL     1      26.215   4.259  49.581  1.00  0.00    -0.009 A 
ATOM     11  C   UNL     1      27.103   6.120  48.630  1.00  0.00    +0.014 A 
ATOM     12  C   UNL     1      27.316   4.777  48.835  1.00  0.00    +0.028 A 
ATOM     13  H   UNL     1      25.478   7.338  49.218  1.00  0.00    +0.168 HD
ATOM     14  C   UNL     1      26.091   2.841  50.001  1.00  0.00    +0.048 C 
ATOM     15  C   UNL     1      27.905   7.133  47.913  1.00  0.00    +0.064 C 
ENDBRANCH   5   8
ENDBRANCH   4   5
ENDBRANCH   3   4
ENDBRANCH   1   3
BRANCH   2  16
ATOM     16  N   UNL     1      22.191   2.027  49.152  1.00  0.00    -0.260 N 
ATOM     17  H   UNL     1      23.095   1.793  48.755  1.00  0.00    +0.192 HD
BRANCH  16  18
ATOM     18  C   UNL     1      21.849   1.351  50.333  1.00  0.00    +0.059 A 
ATOM     19  C   UNL     1      20.532   0.991  50.615  1.00  0.00    +0.030 A 
ATOM     20  C   UNL     1      22.839   0.977  51.248  1.00  0.00    +0.040 A 
ATOM     21  C   UNL     1      20.224   0.266  51.772  1.00  0.00    +0.031 A 
ATOM     22  C   UNL     1      22.523   0.281  52.448  1.00  0.00    +0.029 A 
ATOM     23  C   UNL     1      21.197  -0.099  52.692  1.00  0.00    +0.074 A 
ATOM     24  C   UNL     1      23.434  -0.087  53.457  1.00  0.00    +0.082 A 
ATOM     25  N   UNL     1      20.824  -0.794  53.771  1.00  0.00    -0.236 NA
ATOM     26  N   UNL     1      23.077  -0.808  54.545  1.00  0.00    -0.236 NA
ATOM     27  C   UNL     1      21.785  -1.126  54.641  1.00  0.00    +0.223 A 
BRANCH  24  28
ATOM     28  C   UNL     1      24.851   0.312  53.465  1.00  0.00    +0.002 A 
ATOM     29  C   UNL     1      25.214   1.667  53.574  1.00  0.00    +0.010 A 
ATOM     30  C   UNL     1      25.874  -0.640  53.318  1.00  0.00    +0.030 A 
ATOM     31  C   UNL     1      26.557   2.058  53.564  1.00  0.00    +0.002 A 
ATOM     32  C   UNL     1      27.216  -0.245  53.316  1.00  0.00    +0.041 A 
ATOM     33  C   UNL     1      27.560   1.099  53.439  1.00  0.00    +0.020 A 
ATOM     34 Cl   UNL     1      28.452  -1.433  53.153  1.00  0.00    -0.084 Cl
ENDBRANCH  24  28
ENDBRANCH  16  18
ENDBRANCH   2  16
TORSDOF 8
ENDMDL
MODEL 3
REMARK VINA RESULT:    -8.262      1.110      1.853
REMARK INTER + INTRA:         -13.899
REMARK INTER:                 -12.756
REMARK INTRA:                  -1.143
REMARK UNBOUND:                -1.773
REMARK SMILES CCN(CC/N=N/Nc1ccc2ncnc(-c3cccc(Cl)c3)c2c1)c1[nH]c(C)cc1C
REMARK SMILES IDX 6 1 7 2 5 3 4 4 3 5 2 6 1 7 26 8 27 9 31 10 28 11 30 12
REMARK SMILES IDX 32 14 29 15 8 16 9 18 10 19 25 20 11 21 24 22 12 23 16 24
REMARK SMILES IDX 13 25 15 26 14 27 17 28 18 29 23 30 19 31 21 32 20 33 22 34
REMARK H PARENT 27 13 8 17
ROOT
ATOM      1  N   UNL     1      22.877   3.477  51.078  1.00  0.00    -0.169 NA
ATOM      2  N   UNL     1      21.793   2.883  50.975  1.00  0.00    -0.075 NA
ENDROOT
BRANCH   1   3
ATOM      3  C   UNL     1      22.735   4.900  51.451  1.00  0.00    +0.190 C 
BRANCH   3   4
ATOM      4  C   UNL     1      24.022   5.728  51.321  1.00  0.00    +0.143 C 
BRANCH   4   5
ATOM      5  N   UNL     1      24.377   6.053  49.925  1.00  0.00    -0.356 N 
BRANCH   5   6
ATOM      6  C   UNL     1      23.255   6.351  49.028  1.00  0.00    +0.114 C 
ATOM      7  C   UNL     1      23.171   5.317  47.909  1.00  0.00    +0.027 C 
ENDBRANCH   5   6
BRANCH   5   8
ATOM      8  C   UNL     1      25.615   5.742  49.432  1.00  0.00    +0.109 A 
ATOM      9  N   UNL     1      26.365   6.730  48.834  1.00  0.00    -0.346 N 
ATOM     10  C   UNL     1      26.347   4.566  49.325  1.00  0.00    -0.009 A 
ATOM     11  C   UNL     1      27.543   6.230  48.348  1.00  0.00    +0.014 A 
ATOM     12  C   UNL     1      27.561   4.888  48.651  1.00  0.00    +0.028 A 
ATOM     13  H   UNL     1      26.049   7.679  48.716  1.00  0.00    +0.168 HD
ATOM     14  C   UNL     1      26.005   3.207  49.816  1.00  0.00    +0.048 C 
ATOM     15  C   UNL     1      28.525   7.082  47.646  1.00  0.00    +0.064 C 
ENDBRANCH   5   8
ENDBRANCH   4   5
ENDBRANCH   3   4
ENDBRANCH   1   3
BRANCH   2  16
ATOM     16  N   UNL     1      22.098   1.579  50.822  1.00  0.00    -0.260 N 
ATOM     17  H   UNL     1      22.793   1.414  50.102  1.00  0.00    +0.192 HD
BRANCH  16  18
ATOM     18  C   UNL     1      22.236   0.817  51.991  1.00  0.00    +0.059 A 
ATOM     19  C   UNL     1      21.137   0.218  52.609  1.00  0.00    +0.030 A 
ATOM     20  C   UNL     1      23.499   0.596  52.549  1.00  0.00    +0.040 A 
ATOM     21  C   UNL     1      21.308  -0.586  53.741  1.00  0.00    +0.031 A 
ATOM     22  C   UNL     1      23.670  -0.183  53.728  1.00  0.00    +0.029 A 
ATOM     23  C   UNL     1      22.555  -0.801  54.309  1.00  0.00    +0.074 A 
ATOM     24  C   UNL     1      24.887  -0.415  54.398  1.00  0.00    +0.082 A 
ATOM     25  N   UNL     1      22.637  -1.586  55.388  1.00  0.00    -0.236 NA
ATOM     26  N   UNL     1      24.990  -1.222  55.479  1.00  0.00    -0.236 NA
ATOM     27  C   UNL     1      23.853  -1.768  55.915  1.00  0.00    +0.223 A 
BRANCH  24  28
ATOM     28  C   UNL     1      26.158   0.230  54.033  1.00  0.00    +0.002 A 
ATOM     29  C   UNL     1      26.219   1.616  53.803  1.00  0.00    +0.010 A 
ATOM     30  C   UNL     1      27.331  -0.524  53.859  1.00  0.00    +0.030 A 
ATOM     31  C   UNL     1      27.419   2.235  53.436  1.00  0.00    +0.002 A 
ATOM     32  C   UNL     1      28.529   0.100  53.499  1.00  0.00    +0.041 A 
ATOM     33  C   UNL     1      28.578   1.476  53.288  1.00  0.00    +0.020 A 
ATOM     34 Cl   UNL     1      29.958  -0.844  53.310  1.00  0.00    -0.084 Cl
ENDBRANCH  24  28
ENDBRANCH  16  18
ENDBRANCH   2  16
TORSDOF 8
ENDMDL
MODEL 4
REMARK VINA RESULT:    -8.223      1.956      2.906
REMARK INTER + INTRA:         -13.843
REMARK INTER:                 -11.979
REMARK INTRA:                  -1.863
REMARK UNBOUND:                -1.773
REMARK SMILES CCN(CC/N=N/Nc1ccc2ncnc(-c3cccc(Cl)c3)c2c1)c1[nH]c(C)cc1C
REMARK SMILES IDX 6 1 7 2 5 3 4 4 3 5 2 6 1 7 26 8 27 9 31 10 28 11 30 12
REMARK SMILES IDX 32 14 29 15 8 16 9 18 10 19 25 20 11 21 24 22 12 23 16 24
REMARK SMILES IDX 13 25 15 26 14 27 17 28 18 29 23 30 19 31 21 32 20 33 22 34
REMARK H PARENT 27 13 8 17
ROOT
ATOM      1  N   UNL     1      24.400   7.032  51.295  1.00  0.00    -0.169 NA
ATOM      2  N   UNL     1      23.565   6.114  51.292  1.00  0.00    -0.075 NA
ENDROOT
BRANCH   1   3
ATOM      3  C   UNL     1      24.107   8.097  50.313  1.00  0.00    +0.190 C 
BRANCH   3   4
ATOM      4  C   UNL     1      23.902   7.602  48.874  1.00  0.00    +0.143 C 
BRANCH   4   5
ATOM      5  N   UNL     1      25.160   7.444  48.118  1.00  0.00    -0.356 N 
BRANCH   5   6
ATOM      6  C   UNL     1      25.249   8.181  46.853  1.00  0.00    +0.114 C 
ATOM      7  C   UNL     1      23.887   8.748  46.464  1.00  0.00    +0.027 C 
ENDBRANCH   5   6
BRANCH   5   8
ATOM      8  C   UNL     1      26.015   6.413  48.398  1.00  0.00    +0.109 A 
ATOM      9  N   UNL     1      25.523   5.286  49.017  1.00  0.00    -0.346 N 
ATOM     10  C   UNL     1      27.383   6.224  48.250  1.00  0.00    -0.009 A 
ATOM     11  C   UNL     1      26.525   4.387  49.273  1.00  0.00    +0.014 A 
ATOM     12  C   UNL     1      27.689   4.941  48.795  1.00  0.00    +0.028 A 
ATOM     13  H   UNL     1      24.564   5.175  49.301  1.00  0.00    +0.168 HD
ATOM     14  C   UNL     1      28.388   7.125  47.633  1.00  0.00    +0.048 C 
ATOM     15  C   UNL     1      26.267   3.097  49.946  1.00  0.00    +0.064 C 
ENDBRANCH   5   8
ENDBRANCH   4   5
ENDBRANCH   3   4
ENDBRANCH   1   3
BRANCH   2  16
ATOM     16  N   UNL     1      23.864   5.337  52.351  1.00  0.00    -0.260 N 
ATOM     17  H   UNL     1      23.981   5.863  53.211  1.00  0.00    +0.192 HD
BRANCH  16  18
ATOM     18  C   UNL     1      23.169   4.124  52.467  1.00  0.00    +0.059 A 
ATOM     19  C   UNL     1      21.782   4.059  52.332  1.00  0.00    +0.030 A 
ATOM     20  C   UNL     1      23.862   2.927  52.677  1.00  0.00    +0.040 A 
ATOM     21  C   UNL     1      21.118   2.829  52.393  1.00  0.00    +0.031 A 
ATOM     22  C   UNL     1      23.184   1.680  52.787  1.00  0.00    +0.029 A 
ATOM     23  C   UNL     1      21.794   1.638  52.614  1.00  0.00    +0.074 A 
ATOM     24  C   UNL     1      23.781   0.434  53.056  1.00  0.00    +0.082 A 
ATOM     25  N   UNL     1      21.089   0.503  52.655  1.00  0.00    -0.236 NA
ATOM     26  N   UNL     1      23.085  -0.726  53.080  1.00  0.00    -0.236 NA
ATOM     27  C   UNL     1      21.770  -0.628  52.875  1.00  0.00    +0.223 A 
BRANCH  24  28
ATOM     28  C   UNL     1      25.205   0.263  53.387  1.00  0.00    +0.002 A 
ATOM     29  C   UNL     1      26.160   0.079  52.371  1.00  0.00    +0.010 A 
ATOM     30  C   UNL     1      25.641   0.232  54.722  1.00  0.00    +0.030 A 
ATOM     31  C   UNL     1      27.513  -0.103  52.677  1.00  0.00    +0.002 A 
ATOM     32  C   UNL     1      26.995   0.056  55.022  1.00  0.00    +0.041 A 
ATOM     33  C   UNL     1      27.932  -0.110  54.005  1.00  0.00    +0.020 A 
ATOM     34 Cl   UNL     1      27.507   0.041  56.667  1.00  0.00    -0.084 Cl
ENDBRANCH  24  28
ENDBRANCH  16  18
ENDBRANCH   2  16
TORSDOF 8
ENDMDL
MODEL 5
REMARK VINA RESULT:    -8.142      1.923      3.366
REMARK INTER + INTRA:         -13.723
REMARK INTER:                 -11.014
REMARK INTRA:                  -2.708
REMARK UNBOUND:                -1.773
REMARK SMILES CCN(CC/N=N/Nc1ccc2ncnc(-c3cccc(Cl)c3)c2c1)c1[nH]c(C)cc1C
REMARK SMILES IDX 6 1 7 2 5 3 4 4 3 5 2 6 1 7 26 8 27 9 31 10 28 11 30 12
REMARK SMILES IDX 32 14 29 15 8 16 9 18 10 19 25 20 11 21 24 22 12 23 16 24
REMARK SMILES IDX 13 25 15 26 14 27 17 28 18 29 23 30 19 31 21 32 20 33 22 34
REMARK H PARENT 27 13 8 17
ROOT
ATOM      1  N   UNL     1      22.661   3.097  48.014  1.00  0.00    -0.169 NA
ATOM      2  N   UNL     1      21.566   2.666  48.409  1.00  0.00    -0.075 NA
ENDROOT
BRANCH   1   3
ATOM      3  C   UNL     1      22.687   4.564  47.838  1.00  0.00    +0.190 C 
BRANCH   3   4
ATOM      4  C   UNL     1      23.353   5.335  48.988  1.00  0.00    +0.143 C 
BRANCH   4   5
ATOM      5  N   UNL     1      22.391   5.910  49.949  1.00  0.00    -0.356 N 
BRANCH   5   6
ATOM      6  C   UNL     1      22.531   7.345  50.220  1.00  0.00    +0.114 C 
ATOM      7  C   UNL     1      23.877   7.640  50.875  1.00  0.00    +0.027 C 
ENDBRANCH   5   6
BRANCH   5   8
ATOM      8  C   UNL     1      21.672   5.098  50.784  1.00  0.00    +0.109 A 
ATOM      9  N   UNL     1      20.348   4.850  50.499  1.00  0.00    -0.346 N 
ATOM     10  C   UNL     1      21.953   4.448  51.979  1.00  0.00    -0.009 A 
ATOM     11  C   UNL     1      19.773   4.071  51.468  1.00  0.00    +0.014 A 
ATOM     12  C   UNL     1      20.753   3.798  52.393  1.00  0.00    +0.028 A 
ATOM     13  H   UNL     1      19.858   5.248  49.715  1.00  0.00    +0.168 HD
ATOM     14  C   UNL     1      23.234   4.380  52.725  1.00  0.00    +0.048 C 
ATOM     15  C   UNL     1      18.352   3.671  51.410  1.00  0.00    +0.064 C 
ENDBRANCH   5   8
ENDBRANCH   4   5
ENDBRANCH   3   4
ENDBRANCH   1   3
BRANCH   2  16
ATOM     16  N   UNL     1      21.762   1.364  48.696  1.00  0.00    -0.260 N 
ATOM     17  H   UNL     1      22.644   1.007  48.346  1.00  0.00    +0.192 HD
BRANCH  16  18
ATOM     18  C   UNL     1      21.395   0.934  49.980  1.00  0.00    +0.059 A 
ATOM     19  C   UNL     1      20.060   0.730  50.329  1.00  0.00    +0.030 A 
ATOM     20  C   UNL     1      22.372   0.652  50.940  1.00  0.00    +0.040 A 
ATOM     21  C   UNL     1      19.722   0.244  51.597  1.00  0.00    +0.031 A 
ATOM     22  C   UNL     1      22.029   0.203  52.246  1.00  0.00    +0.029 A 
ATOM     23  C   UNL     1      20.683  -0.027  52.561  1.00  0.00    +0.074 A 
ATOM     24  C   UNL     1      22.930  -0.051  53.298  1.00  0.00    +0.082 A 
ATOM     25  N   UNL     1      20.281  -0.492  53.748  1.00  0.00    -0.236 NA
ATOM     26  N   UNL     1      22.543  -0.541  54.498  1.00  0.00    -0.236 NA
ATOM     27  C   UNL     1      21.232  -0.739  54.657  1.00  0.00    +0.223 A 
BRANCH  24  28
ATOM     28  C   UNL     1      24.372   0.235  53.227  1.00  0.00    +0.002 A 
ATOM     29  C   UNL     1      24.841   1.561  53.224  1.00  0.00    +0.010 A 
ATOM     30  C   UNL     1      25.313  -0.803  53.115  1.00  0.00    +0.030 A 
ATOM     31  C   UNL     1      26.208   1.843  53.137  1.00  0.00    +0.002 A 
ATOM     32  C   UNL     1      26.680  -0.516  53.036  1.00  0.00    +0.041 A 
ATOM     33  C   UNL     1      27.130   0.802  53.048  1.00  0.00    +0.020 A 
ATOM     34 Cl   UNL     1      27.815  -1.806  52.918  1.00  0.00    -0.084 Cl
ENDBRANCH  24  28
ENDBRANCH  16  18
ENDBRANCH   2  16
TORSDOF 8
ENDMDL
MODEL 6
REMARK VINA RESULT:    -8.091      2.467      5.176
REMARK INTER + INTRA:         -13.649
REMARK INTER:                 -11.296
REMARK INTRA:                  -2.353
REMARK UNBOUND:                -1.773
REMARK SMILES CCN(CC/N=N/Nc1ccc2ncnc(-c3cccc(Cl)c3)c2c1)c1[nH]c(C)cc1C
REMARK SMILES IDX 6 1 7 2 5 3 4 4 3 5 2 6 1 7 26 8 27 9 31 10 28 11 30 12
REMARK SMILES IDX 32 14 29 15 8 16 9 18 10 19 25 20 11 21 24 22 12 23 16 24
REMARK SMILES IDX 13 25 15 26 14 27 17 28 18 29 23 30 19 31 21 32 20 33 22 34
REMARK H PARENT 27 13 8 17
ROOT
ATOM      1  N   UNL     1      26.850   2.842  50.955  1.00  0.00    -0.169 NA
ATOM      2  N   UNL     1      26.051   1.919  51.180  1.00  0.00    -0.075 NA
ENDROOT
BRANCH   1   3
ATOM      3  C   UNL     1      26.557   3.582  49.710  1.00  0.00    +0.190 C 
BRANCH   3   4
ATOM      4  C   UNL     1      25.071   3.621  49.323  1.00  0.00    +0.143 C 
BRANCH   4   5
ATOM      5  N   UNL     1      24.400   4.885  49.682  1.00  0.00    -0.356 N 
BRANCH   5   6
ATOM      6  C   UNL     1      25.248   6.082  49.702  1.00  0.00    +0.114 C 
ATOM      7  C   UNL     1      25.268   6.751  48.331  1.00  0.00    +0.027 C 
ENDBRANCH   5   6
BRANCH   5   8
ATOM      8  C   UNL     1      23.177   4.873  50.297  1.00  0.00    +0.109 A 
ATOM      9  N   UNL     1      22.063   5.240  49.576  1.00  0.00    -0.346 N 
ATOM     10  C   UNL     1      22.748   4.613  51.592  1.00  0.00    -0.009 A 
ATOM     11  C   UNL     1      20.941   5.228  50.362  1.00  0.00    +0.014 A 
ATOM     12  C   UNL     1      21.339   4.830  51.617  1.00  0.00    +0.028 A 
ATOM     13  H   UNL     1      22.089   5.541  48.615  1.00  0.00    +0.168 HD
ATOM     14  C   UNL     1      23.541   4.169  52.765  1.00  0.00    +0.048 C 
ATOM     15  C   UNL     1      19.611   5.597  49.835  1.00  0.00    +0.064 C 
ENDBRANCH   5   8
ENDBRANCH   4   5
ENDBRANCH   3   4
ENDBRANCH   1   3
BRANCH   2  16
ATOM     16  N   UNL     1      26.336   1.476  52.420  1.00  0.00    -0.260 N 
ATOM     17  H   UNL     1      26.772   2.182  53.005  1.00  0.00    +0.192 HD
BRANCH  16  18
ATOM     18  C   UNL     1      25.371   0.673  53.047  1.00  0.00    +0.059 A 
ATOM     19  C   UNL     1      25.702  -0.181  54.099  1.00  0.00    +0.030 A 
ATOM     20  C   UNL     1      24.030   0.743  52.659  1.00  0.00    +0.040 A 
ATOM     21  C   UNL     1      24.712  -0.928  54.747  1.00  0.00    +0.031 A 
ATOM     22  C   UNL     1      23.028  -0.052  53.284  1.00  0.00    +0.029 A 
ATOM     23  C   UNL     1      23.380  -0.876  54.361  1.00  0.00    +0.074 A 
ATOM     24  C   UNL     1      21.666  -0.098  52.930  1.00  0.00    +0.082 A 
ATOM     25  N   UNL     1      22.493  -1.617  55.032  1.00  0.00    -0.236 NA
ATOM     26  N   UNL     1      20.752  -0.826  53.610  1.00  0.00    -0.236 NA
ATOM     27  C   UNL     1      21.218  -1.548  54.632  1.00  0.00    +0.223 A 
BRANCH  24  28
ATOM     28  C   UNL     1      21.102   0.593  51.759  1.00  0.00    +0.002 A 
ATOM     29  C   UNL     1      19.771   1.050  51.769  1.00  0.00    +0.010 A 
ATOM     30  C   UNL     1      21.857   0.774  50.588  1.00  0.00    +0.030 A 
ATOM     31  C   UNL     1      19.220   1.691  50.655  1.00  0.00    +0.002 A 
ATOM     32  C   UNL     1      21.303   1.422  49.479  1.00  0.00    +0.041 A 
ATOM     33  C   UNL     1      19.989   1.881  49.509  1.00  0.00    +0.020 A 
ATOM     34 Cl   UNL     1      22.256   1.648  48.062  1.00  0.00    -0.084 Cl
ENDBRANCH  24  28
ENDBRANCH  16  18
ENDBRANCH   2  16
TORSDOF 8
ENDMDL
MODEL 7
REMARK VINA RESULT:    -7.765      2.568      3.705
REMARK INTER + INTRA:         -13.171
REMARK INTER:                 -11.094
REMARK INTRA:                  -2.077
REMARK UNBOUND:                -1.773
REMARK SMILES CCN(CC/N=N/Nc1ccc2ncnc(-c3cccc(Cl)c3)c2c1)c1[nH]c(C)cc1C
REMARK SMILES IDX 6 1 7 2 5 3 4 4 3 5 2 6 1 7 26 8 27 9 31 10 28 11 30 12
REMARK SMILES IDX 32 14 29 15 8 16 9 18 10 19 25 20 11 21 24 22 12 23 16 24
REMARK SMILES IDX 13 25 15 26 14 27 17 28 18 29 23 30 19 31 21 32 20 33 22 34
REMARK H PARENT 27 13 8 17
ROOT
ATOM      1  N   UNL     1      21.207   3.085  47.574  1.00  0.00    -0.169 NA
ATOM      2  N   UNL     1      20.395   2.392  48.207  1.00  0.00    -0.075 NA
ENDROOT
BRANCH   1   3
ATOM      3  C   UNL     1      20.689   4.423  47.221  1.00  0.00    +0.190 C 
BRANCH   3   4
ATOM      4  C   UNL     1      21.252   5.572  48.071  1.00  0.00    +0.143 C 
BRANCH   4   5
ATOM      5  N   UNL     1      20.493   5.815  49.313  1.00  0.00    -0.356 N 
BRANCH   5   6
ATOM      6  C   UNL     1      19.675   7.034  49.342  1.00  0.00    +0.114 C 
ATOM      7  C   UNL     1      20.482   8.210  49.883  1.00  0.00    +0.027 C 
ENDBRANCH   5   6
BRANCH   5   8
ATOM      8  C   UNL     1      20.814   5.151  50.466  1.00  0.00    +0.109 A 
ATOM      9  N   UNL     1      22.101   5.234  50.949  1.00  0.00    -0.346 N 
ATOM     10  C   UNL     1      20.122   4.298  51.316  1.00  0.00    -0.009 A 
ATOM     11  C   UNL     1      22.257   4.464  52.071  1.00  0.00    +0.014 A 
ATOM     12  C   UNL     1      21.038   3.881  52.327  1.00  0.00    +0.028 A 
ATOM     13  H   UNL     1      22.840   5.743  50.492  1.00  0.00    +0.168 HD
ATOM     14  C   UNL     1      18.700   3.877  51.260  1.00  0.00    +0.048 C 
ATOM     15  C   UNL     1      23.551   4.365  52.779  1.00  0.00    +0.064 C 
ENDBRANCH   5   8
ENDBRANCH   4   5
ENDBRANCH   3   4
ENDBRANCH   1   3
BRANCH   2  16
ATOM     16  N   UNL     1      21.073   1.300  48.610  1.00  0.00    -0.260 N 
ATOM     17  H   UNL     1      22.033   1.283  48.280  1.00  0.00    +0.192 HD
BRANCH  16  18
ATOM     18  C   UNL     1      20.874   0.879  49.933  1.00  0.00    +0.059 A 
ATOM     19  C   UNL     1      19.594   0.705  50.460  1.00  0.00    +0.030 A 
ATOM     20  C   UNL     1      21.965   0.576  50.753  1.00  0.00    +0.040 A 
ATOM     21  C   UNL     1      19.421   0.227  51.764  1.00  0.00    +0.031 A 
ATOM     22  C   UNL     1      21.793   0.136  52.096  1.00  0.00    +0.029 A 
ATOM     23  C   UNL     1      20.497  -0.064  52.590  1.00  0.00    +0.074 A 
ATOM     24  C   UNL     1      22.822  -0.136  53.017  1.00  0.00    +0.082 A 
ATOM     25  N   UNL     1      20.249  -0.519  53.822  1.00  0.00    -0.236 NA
ATOM     26  N   UNL     1      22.590  -0.617  54.260  1.00  0.00    -0.236 NA
ATOM     27  C   UNL     1      21.309  -0.786  54.595  1.00  0.00    +0.223 A 
BRANCH  24  28
ATOM     28  C   UNL     1      24.247   0.117  52.751  1.00  0.00    +0.002 A 
ATOM     29  C   UNL     1      25.236  -0.745  53.257  1.00  0.00    +0.010 A 
ATOM     30  C   UNL     1      24.660   1.248  52.026  1.00  0.00    +0.030 A 
ATOM     31  C   UNL     1      26.594  -0.502  53.025  1.00  0.00    +0.002 A 
ATOM     32  C   UNL     1      26.019   1.483  51.791  1.00  0.00    +0.041 A 
ATOM     33  C   UNL     1      26.986   0.612  52.287  1.00  0.00    +0.020 A 
ATOM     34 Cl   UNL     1      26.498   2.867  50.884  1.00  0.00    -0.084 Cl
ENDBRANCH  24  28
ENDBRANCH  16  18
ENDBRANCH   2  16
TORSDOF 8
ENDMDL
MODEL 8
REMARK VINA RESULT:    -7.686      1.384      3.042
REMARK INTER + INTRA:         -13.053
REMARK INTER:                 -11.499
REMARK INTRA:                  -1.554
REMARK UNBOUND:                -1.773
REMARK SMILES CCN(CC/N=N/Nc1ccc2ncnc(-c3cccc(Cl)c3)c2c1)c1[nH]c(C)cc1C
REMARK SMILES IDX 6 1 7 2 5 3 4 4 3 5 2 6 1 7 26 8 27 9 31 10 28 11 30 12
REMARK SMILES IDX 32 14 29 15 8 16 9 18 10 19 25 20 11 21 24 22 12 23 16 24
REMARK SMILES IDX 13 25 15 26 14 27 17 28 18 29 23 30 19 31 21 32 20 33 22 34
REMARK H PARENT 27 13 8 17
ROOT
ATOM      1  N   UNL     1      21.748   2.374  48.743  1.00  0.00    -0.169 NA
ATOM      2  N   UNL     1      21.795   2.315  49.982  1.00  0.00    -0.075 NA
ENDROOT
BRANCH   1   3
ATOM      3  C   UNL     1      22.903   3.075  48.145  1.00  0.00    +0.190 C 
BRANCH   3   4
ATOM      4  C   UNL     1      24.061   3.347  49.116  1.00  0.00    +0.143 C 
BRANCH   4   5
ATOM      5  N   UNL     1      24.295   4.781  49.371  1.00  0.00    -0.356 N 
BRANCH   5   6
ATOM      6  C   UNL     1      25.690   5.229  49.306  1.00  0.00    +0.114 C 
ATOM      7  C   UNL     1      26.637   4.034  49.261  1.00  0.00    +0.027 C 
ENDBRANCH   5   6
BRANCH   5   8
ATOM      8  C   UNL     1      23.333   5.546  49.975  1.00  0.00    +0.109 A 
ATOM      9  N   UNL     1      22.741   6.563  49.261  1.00  0.00    -0.346 N 
ATOM     10  C   UNL     1      22.797   5.591  51.256  1.00  0.00    -0.009 A 
ATOM     11  C   UNL     1      21.851   7.257  50.036  1.00  0.00    +0.014 A 
ATOM     12  C   UNL     1      21.858   6.665  51.278  1.00  0.00    +0.028 A 
ATOM     13  H   UNL     1      22.986   6.799  48.313  1.00  0.00    +0.168 HD
ATOM     14  C   UNL     1      23.079   4.711  52.417  1.00  0.00    +0.048 C 
ATOM     15  C   UNL     1      21.089   8.410  49.514  1.00  0.00    +0.064 C 
ENDBRANCH   5   8
ENDBRANCH   4   5
ENDBRANCH   3   4
ENDBRANCH   1   3
BRANCH   2  16
ATOM     16  N   UNL     1      20.791   1.496  50.352  1.00  0.00    -0.260 N 
ATOM     17  H   UNL     1      20.388   0.983  49.575  1.00  0.00    +0.192 HD
BRANCH  16  18
ATOM     18  C   UNL     1      20.967   0.769  51.539  1.00  0.00    +0.059 A 
ATOM     19  C   UNL     1      19.887   0.211  52.223  1.00  0.00    +0.030 A 
ATOM     20  C   UNL     1      22.250   0.542  52.048  1.00  0.00    +0.040 A 
ATOM     21  C   UNL     1      20.093  -0.560  53.373  1.00  0.00    +0.031 A 
ATOM     22  C   UNL     1      22.459  -0.201  53.244  1.00  0.00    +0.029 A 
ATOM     23  C   UNL     1      21.361  -0.779  53.893  1.00  0.00    +0.074 A 
ATOM     24  C   UNL     1      23.700  -0.434  53.868  1.00  0.00    +0.082 A 
ATOM     25  N   UNL     1      21.476  -1.530  54.993  1.00  0.00    -0.236 NA
ATOM     26  N   UNL     1      23.837  -1.207  54.969  1.00  0.00    -0.236 NA
ATOM     27  C   UNL     1      22.712  -1.718  55.473  1.00  0.00    +0.223 A 
BRANCH  24  28
ATOM     28  C   UNL     1      24.965   0.175  53.426  1.00  0.00    +0.002 A 
ATOM     29  C   UNL     1      24.985   1.471  52.879  1.00  0.00    +0.010 A 
ATOM     30  C   UNL     1      26.176  -0.535  53.495  1.00  0.00    +0.030 A 
ATOM     31  C   UNL     1      26.179   2.051  52.439  1.00  0.00    +0.002 A 
ATOM     32  C   UNL     1      27.369   0.052  53.061  1.00  0.00    +0.041 A 
ATOM     33  C   UNL     1      27.375   1.342  52.534  1.00  0.00    +0.020 A 
ATOM     34 Cl   UNL     1      28.843  -0.833  53.173  1.00  0.00    -0.084 Cl
ENDBRANCH  24  28
ENDBRANCH  16  18
ENDBRANCH   2  16
TORSDOF 8
ENDMDL
MODEL 9
REMARK VINA RESULT:    -7.651      3.669      6.132
REMARK INTER + INTRA:         -13.003
REMARK INTER:                 -10.467
REMARK INTRA:                  -2.536
REMARK UNBOUND:                -1.773
REMARK SMILES CCN(CC/N=N/Nc1ccc2ncnc(-c3cccc(Cl)c3)c2c1)c1[nH]c(C)cc1C
REMARK SMILES IDX 6 1 7 2 5 3 4 4 3 5 2 6 1 7 26 8 27 9 31 10 28 11 30 12
REMARK SMILES IDX 32 14 29 15 8 16 9 18 10 19 25 20 11 21 24 22 12 23 16 24
REMARK SMILES IDX 13 25 15 26 14 27 17 28 18 29 23 30 19 31 21 32 20 33 22 34
REMARK H PARENT 27 13 8 17
ROOT
ATOM      1  N   UNL     1      18.161  -0.436  52.638  1.00  0.00    -0.169 NA
ATOM      2  N   UNL     1      19.402  -0.444  52.617  1.00  0.00    -0.075 NA
ENDROOT
BRANCH   1   3
ATOM      3  C   UNL     1      17.551  -0.420  51.292  1.00  0.00    +0.190 C 
BRANCH   3   4
ATOM      4  C   UNL     1      16.458   0.642  51.098  1.00  0.00    +0.143 C 
BRANCH   4   5
ATOM      5  N   UNL     1      16.936   2.025  51.292  1.00  0.00    -0.356 N 
BRANCH   5   6
ATOM      6  C   UNL     1      16.040   2.919  52.034  1.00  0.00    +0.114 C 
ATOM      7  C   UNL     1      14.809   2.162  52.524  1.00  0.00    +0.027 C 
ENDBRANCH   5   6
BRANCH   5   8
ATOM      8  C   UNL     1      17.959   2.521  50.529  1.00  0.00    +0.109 A 
ATOM      9  N   UNL     1      17.788   2.623  49.167  1.00  0.00    -0.346 N 
ATOM     10  C   UNL     1      19.257   2.934  50.802  1.00  0.00    -0.009 A 
ATOM     11  C   UNL     1      18.927   3.080  48.560  1.00  0.00    +0.014 A 
ATOM     12  C   UNL     1      19.852   3.292  49.556  1.00  0.00    +0.028 A 
ATOM     13  H   UNL     1      16.954   2.332  48.683  1.00  0.00    +0.168 HD
ATOM     14  C   UNL     1      19.948   3.032  52.111  1.00  0.00    +0.048 C 
ATOM     15  C   UNL     1      19.015   3.265  47.097  1.00  0.00    +0.064 C 
ENDBRANCH   5   8
ENDBRANCH   4   5
ENDBRANCH   3   4
ENDBRANCH   1   3
BRANCH   2  16
ATOM     16  N   UNL     1      19.792  -0.648  53.890  1.00  0.00    -0.260 N 
ATOM     17  H   UNL     1      19.245  -1.358  54.366  1.00  0.00    +0.192 HD
BRANCH  16  18
ATOM     18  C   UNL     1      21.173  -0.675  54.136  1.00  0.00    +0.059 A 
ATOM     19  C   UNL     1      21.744  -1.607  55.003  1.00  0.00    +0.030 A 
ATOM     20  C   UNL     1      22.029   0.212  53.475  1.00  0.00    +0.040 A 
ATOM     21  C   UNL     1      23.131  -1.652  55.186  1.00  0.00    +0.031 A 
ATOM     22  C   UNL     1      23.435   0.200  53.696  1.00  0.00    +0.029 A 
ATOM     23  C   UNL     1      23.987  -0.768  54.545  1.00  0.00    +0.074 A 
ATOM     24  C   UNL     1      24.370   1.086  53.127  1.00  0.00    +0.082 A 
ATOM     25  N   UNL     1      25.300  -0.877  54.769  1.00  0.00    -0.236 NA
ATOM     26  N   UNL     1      25.704   0.977  53.327  1.00  0.00    -0.236 NA
ATOM     27  C   UNL     1      26.098  -0.006  54.140  1.00  0.00    +0.223 A 
BRANCH  24  28
ATOM     28  C   UNL     1      24.001   2.248  52.303  1.00  0.00    +0.002 A 
ATOM     29  C   UNL     1      23.807   3.511  52.890  1.00  0.00    +0.010 A 
ATOM     30  C   UNL     1      23.788   2.118  50.920  1.00  0.00    +0.030 A 
ATOM     31  C   UNL     1      23.437   4.617  52.118  1.00  0.00    +0.002 A 
ATOM     32  C   UNL     1      23.425   3.229  50.151  1.00  0.00    +0.041 A 
ATOM     33  C   UNL     1      23.250   4.477  50.744  1.00  0.00    +0.020 A 
ATOM     34 Cl   UNL     1      23.188   3.048  48.454  1.00  0.00    -0.084 Cl
ENDBRANCH  24  28
ENDBRANCH  16  18
ENDBRANCH   2  16
TORSDOF 8
ENDMDL
