REMARK SMILES Cc1cc(C)c(N(C(=O)c2ccccn2)c2cccc(Cl)c2)[nH]1
REMARK SMILES IDX 7 1 6 2 2 3 3 4 23 5 4 6 1 7 5 9 8 10 9 11 10 12 11 13 15 14
REMARK SMILES IDX 12 15 14 16 13 17 16 18 17 19 22 20 18 21 20 22 19 23 21 24
REMARK H PARENT 23 8
ROOT
ATOM      1  N   UNL     1      -0.143   0.055  -0.196  1.00  0.00    -0.261 N 
ENDROOT
BRANCH   1   2
ATOM      2  C   UNL     1      -1.179  -0.561   0.528  1.00  0.00    +0.120 A 
ATOM      3  C   UNL     1      -2.918  -1.968   0.856  1.00  0.00    +0.014 A 
ATOM      4  C   UNL     1      -2.675  -1.321   2.047  1.00  0.00    +0.028 A 
ATOM      5  N   UNL     1      -1.973  -1.536  -0.037  1.00  0.00    -0.345 N 
ATOM      6  C   UNL     1      -1.555  -0.458   1.864  1.00  0.00    -0.008 A 
ATOM      7  C   UNL     1      -3.941  -2.973   0.480  1.00  0.00    +0.064 C 
ATOM      8  H   UNL     1      -1.889  -1.827  -1.005  1.00  0.00    +0.168 HD
ATOM      9  C   UNL     1      -0.912   0.337   2.947  1.00  0.00    +0.048 C 
ENDBRANCH   1   2
BRANCH   1  10
ATOM     10  C   UNL     1       0.393  -0.689  -1.264  1.00  0.00    +0.282 C 
ATOM     11  O   UNL     1      -0.295  -1.232  -2.135  1.00  0.00    -0.266 OA
BRANCH  10  12
ATOM     12  C   UNL     1       1.873  -0.947  -1.239  1.00  0.00    +0.129 A 
ATOM     13  C   UNL     1       2.473  -1.553  -2.339  1.00  0.00    +0.034 A 
ATOM     14  N   UNL     1       2.561  -0.592  -0.121  1.00  0.00    -0.251 NA
ATOM     15  C   UNL     1       3.842  -1.803  -2.295  1.00  0.00    +0.004 A 
ATOM     16  C   UNL     1       3.885  -0.853  -0.108  1.00  0.00    +0.112 A 
ATOM     17  C   UNL     1       4.563  -1.448  -1.160  1.00  0.00    +0.020 A 
ENDBRANCH  10  12
ENDBRANCH   1  10
BRANCH   1  18
ATOM     18  C   UNL     1      -0.064   1.502  -0.200  1.00  0.00    +0.052 A 
ATOM     19  C   UNL     1       1.011   2.171  -0.815  1.00  0.00    +0.027 A 
ATOM     20  C   UNL     1      -1.083   2.311   0.338  1.00  0.00    +0.047 A 
ATOM     21  C   UNL     1       1.093   3.570  -0.847  1.00  0.00    +0.004 A 
ATOM     22  C   UNL     1      -1.001   3.707   0.307  1.00  0.00    +0.043 A 
ATOM     23  C   UNL     1       0.087   4.341  -0.278  1.00  0.00    +0.020 A 
ATOM     24 Cl   UNL     1      -2.269   4.652   0.988  1.00  0.00    -0.084 Cl
ENDBRANCH   1  18
TORSDOF 4
