MODEL 1
REMARK VINA RESULT:    -7.431      0.000      0.000
REMARK INTER + INTRA:         -11.404
REMARK INTER:                  -8.300
REMARK INTRA:                  -3.104
REMARK UNBOUND:                -3.104
REMARK SMILES Cc1cccc(C=C2C(=O)N(C)c3ncnc(-c4cccc(C)c4)c32)c1
REMARK SMILES IDX 7 1 8 2 9 3 10 4 11 5 12 6 13 7 14 8 15 9 16 10 17 11 25 12
REMARK SMILES IDX 6 13 2 14 3 15 26 16 4 17 5 18 1 19 18 20 19 21 24 22 20 23
REMARK SMILES IDX 22 24 21 25 23 26
REMARK H PARENT
ROOT
ATOM      1  C   UNL     1      24.365   2.660  50.192  1.00  0.00    +0.022 C 
ATOM      2  C   UNL     1      23.891   2.116  51.325  1.00  0.00    +0.054 C 
ATOM      3  C   UNL     1      24.798   1.160  52.059  1.00  0.00    +0.260 C 
ATOM      4  O   UNL     1      25.990   0.999  51.872  1.00  0.00    -0.269 OA
ATOM      5  N   UNL     1      23.965   0.506  52.944  1.00  0.00    -0.295 N 
ATOM      6  C   UNL     1      24.363  -0.520  53.868  1.00  0.00    +0.155 C 
ATOM      7  C   UNL     1      22.667   1.028  52.909  1.00  0.00    +0.147 A 
ATOM      8  N   UNL     1      21.683   0.602  53.709  1.00  0.00    -0.218 NA
ATOM      9  C   UNL     1      20.550   1.297  53.577  1.00  0.00    +0.224 A 
ATOM     10  N   UNL     1      20.365   2.364  52.782  1.00  0.00    -0.236 NA
ATOM     11  C   UNL     1      21.413   2.778  52.015  1.00  0.00    +0.084 A 
ATOM     12  C   UNL     1      22.587   2.067  51.988  1.00  0.00    +0.057 A 
ENDROOT
BRANCH   1  13
ATOM     13  C   UNL     1      23.628   3.377  49.150  1.00  0.00    -0.025 A 
ATOM     14  C   UNL     1      23.251   5.430  47.893  1.00  0.00    -0.051 A 
ATOM     15  C   UNL     1      22.344   4.749  47.075  1.00  0.00    +0.003 A 
ATOM     16  C   UNL     1      23.889   4.736  48.931  1.00  0.00    +0.011 A 
ATOM     17  C   UNL     1      22.099   3.389  47.270  1.00  0.00    +0.001 A 
ATOM     18  C   UNL     1      22.745   2.704  48.299  1.00  0.00    +0.008 A 
ATOM     19  C   UNL     1      23.489   6.898  47.705  1.00  0.00    +0.044 C 
ENDBRANCH   1  13
BRANCH  11  20
ATOM     20  C   UNL     1      21.180   4.077  51.369  1.00  0.00    +0.001 A 
ATOM     21  C   UNL     1      21.875   5.228  51.777  1.00  0.00    +0.010 A 
ATOM     22  C   UNL     1      20.194   4.219  50.377  1.00  0.00    +0.013 A 
ATOM     23  C   UNL     1      21.615   6.469  51.191  1.00  0.00    +0.001 A 
ATOM     24  C   UNL     1      19.920   5.461  49.787  1.00  0.00    -0.050 A 
ATOM     25  C   UNL     1      20.649   6.582  50.194  1.00  0.00    +0.003 A 
ATOM     26  C   UNL     1      18.900   5.572  48.693  1.00  0.00    +0.044 C 
ENDBRANCH  11  20
TORSDOF 2
ENDMDL
MODEL 2
REMARK VINA RESULT:    -7.395      1.645      2.426
REMARK INTER + INTRA:         -11.364
REMARK INTER:                  -8.274
REMARK INTRA:                  -3.090
REMARK UNBOUND:                -3.104
REMARK SMILES Cc1cccc(C=C2C(=O)N(C)c3ncnc(-c4cccc(C)c4)c32)c1
REMARK SMILES IDX 7 1 8 2 9 3 10 4 11 5 12 6 13 7 14 8 15 9 16 10 17 11 25 12
REMARK SMILES IDX 6 13 2 14 3 15 26 16 4 17 5 18 1 19 18 20 19 21 24 22 20 23
REMARK SMILES IDX 22 24 21 25 23 26
REMARK H PARENT
ROOT
ATOM      1  C   UNL     1      24.666   3.093  50.106  1.00  0.00    +0.022 C 
ATOM      2  C   UNL     1      24.861   2.266  51.146  1.00  0.00    +0.054 C 
ATOM      3  C   UNL     1      26.279   2.096  51.631  1.00  0.00    +0.260 C 
ATOM      4  O   UNL     1      27.235   2.793  51.345  1.00  0.00    -0.269 OA
ATOM      5  N   UNL     1      26.238   0.970  52.429  1.00  0.00    -0.295 N 
ATOM      6  C   UNL     1      27.357   0.390  53.120  1.00  0.00    +0.155 C 
ATOM      7  C   UNL     1      24.931   0.490  52.573  1.00  0.00    +0.147 A 
ATOM      8  N   UNL     1      24.615  -0.560  53.338  1.00  0.00    -0.218 NA
ATOM      9  C   UNL     1      23.303  -0.793  53.409  1.00  0.00    +0.224 A 
ATOM     10  N   UNL     1      22.336  -0.053  52.840  1.00  0.00    -0.236 NA
ATOM     11  C   UNL     1      22.713   1.027  52.099  1.00  0.00    +0.084 A 
ATOM     12  C   UNL     1      24.040   1.292  51.868  1.00  0.00    +0.057 A 
ENDROOT
BRANCH   1  13
ATOM     13  C   UNL     1      23.476   3.231  49.264  1.00  0.00    -0.025 A 
ATOM     14  C   UNL     1      21.677   4.627  48.400  1.00  0.00    -0.051 A 
ATOM     15  C   UNL     1      21.282   3.580  47.561  1.00  0.00    +0.003 A 
ATOM     16  C   UNL     1      22.776   4.443  49.251  1.00  0.00    +0.011 A 
ATOM     17  C   UNL     1      21.991   2.378  47.550  1.00  0.00    +0.001 A 
ATOM     18  C   UNL     1      23.090   2.207  48.392  1.00  0.00    +0.008 A 
ATOM     19  C   UNL     1      20.895   5.906  48.438  1.00  0.00    +0.044 C 
ENDBRANCH   1  13
BRANCH  11  20
ATOM     20  C   UNL     1      21.587   1.892  51.723  1.00  0.00    +0.001 A 
ATOM     21  C   UNL     1      21.427   3.169  52.286  1.00  0.00    +0.010 A 
ATOM     22  C   UNL     1      20.590   1.430  50.845  1.00  0.00    +0.013 A 
ATOM     23  C   UNL     1      20.329   3.967  51.960  1.00  0.00    +0.001 A 
ATOM     24  C   UNL     1      19.479   2.220  50.515  1.00  0.00    -0.050 A 
ATOM     25  C   UNL     1      19.365   3.498  51.070  1.00  0.00    +0.003 A 
ATOM     26  C   UNL     1      18.460   1.722  49.534  1.00  0.00    +0.044 C 
ENDBRANCH  11  20
TORSDOF 2
ENDMDL
MODEL 3
REMARK VINA RESULT:    -7.360      1.717      4.086
REMARK INTER + INTRA:         -11.325
REMARK INTER:                  -8.374
REMARK INTRA:                  -2.951
REMARK UNBOUND:                -3.104
REMARK SMILES Cc1cccc(C=C2C(=O)N(C)c3ncnc(-c4cccc(C)c4)c32)c1
REMARK SMILES IDX 7 1 8 2 9 3 10 4 11 5 12 6 13 7 14 8 15 9 16 10 17 11 25 12
REMARK SMILES IDX 6 13 2 14 3 15 26 16 4 17 5 18 1 19 18 20 19 21 24 22 20 23
REMARK SMILES IDX 22 24 21 25 23 26
REMARK H PARENT
ROOT
ATOM      1  C   UNL     1      20.662   2.353  52.551  1.00  0.00    +0.022 C 
ATOM      2  C   UNL     1      21.595   1.417  52.788  1.00  0.00    +0.054 C 
ATOM      3  C   UNL     1      21.259   0.354  53.803  1.00  0.00    +0.260 C 
ATOM      4  O   UNL     1      20.160   0.109  54.264  1.00  0.00    -0.269 OA
ATOM      5  N   UNL     1      22.473  -0.235  54.101  1.00  0.00    -0.295 N 
ATOM      6  C   UNL     1      22.677  -1.307  55.036  1.00  0.00    +0.155 C 
ATOM      7  C   UNL     1      23.501   0.278  53.302  1.00  0.00    +0.147 A 
ATOM      8  N   UNL     1      24.763  -0.162  53.358  1.00  0.00    -0.218 NA
ATOM      9  C   UNL     1      25.564   0.396  52.448  1.00  0.00    +0.224 A 
ATOM     10  N   UNL     1      25.193   1.277  51.503  1.00  0.00    -0.236 NA
ATOM     11  C   UNL     1      23.888   1.664  51.469  1.00  0.00    +0.084 A 
ATOM     12  C   UNL     1      23.003   1.239  52.429  1.00  0.00    +0.057 A 
ENDROOT
BRANCH   1  13
ATOM     13  C   UNL     1      20.812   3.630  51.852  1.00  0.00    -0.025 A 
ATOM     14  C   UNL     1      20.085   5.145  50.087  1.00  0.00    -0.051 A 
ATOM     15  C   UNL     1      20.967   6.116  50.573  1.00  0.00    +0.003 A 
ATOM     16  C   UNL     1      20.015   3.902  50.732  1.00  0.00    +0.011 A 
ATOM     17  C   UNL     1      21.744   5.862  51.704  1.00  0.00    +0.001 A 
ATOM     18  C   UNL     1      21.661   4.626  52.346  1.00  0.00    +0.008 A 
ATOM     19  C   UNL     1      19.275   5.405  48.853  1.00  0.00    +0.044 C 
ENDBRANCH   1  13
BRANCH  11  20
ATOM     20  C   UNL     1      23.545   2.437  50.267  1.00  0.00    +0.001 A 
ATOM     21  C   UNL     1      22.707   1.905  49.273  1.00  0.00    +0.010 A 
ATOM     22  C   UNL     1      24.114   3.703  50.041  1.00  0.00    +0.013 A 
ATOM     23  C   UNL     1      22.423   2.626  48.111  1.00  0.00    +0.001 A 
ATOM     24  C   UNL     1      23.841   4.433  48.875  1.00  0.00    -0.050 A 
ATOM     25  C   UNL     1      22.980   3.889  47.918  1.00  0.00    +0.003 A 
ATOM     26  C   UNL     1      24.419   5.804  48.687  1.00  0.00    +0.044 C 
ENDBRANCH  11  20
TORSDOF 2
ENDMDL
MODEL 4
REMARK VINA RESULT:    -7.152      3.317      5.835
REMARK INTER + INTRA:         -11.092
REMARK INTER:                  -8.289
REMARK INTRA:                  -2.803
REMARK UNBOUND:                -3.104
REMARK SMILES Cc1cccc(C=C2C(=O)N(C)c3ncnc(-c4cccc(C)c4)c32)c1
REMARK SMILES IDX 7 1 8 2 9 3 10 4 11 5 12 6 13 7 14 8 15 9 16 10 17 11 25 12
REMARK SMILES IDX 6 13 2 14 3 15 26 16 4 17 5 18 1 19 18 20 19 21 24 22 20 23
REMARK SMILES IDX 22 24 21 25 23 26
REMARK H PARENT
ROOT
ATOM      1  C   UNL     1      25.129  -1.298  52.671  1.00  0.00    +0.022 C 
ATOM      2  C   UNL     1      26.376  -0.819  52.809  1.00  0.00    +0.054 C 
ATOM      3  C   UNL     1      27.505  -1.819  52.757  1.00  0.00    +0.260 C 
ATOM      4  O   UNL     1      27.438  -2.973  52.377  1.00  0.00    -0.269 OA
ATOM      5  N   UNL     1      28.593  -1.137  53.265  1.00  0.00    -0.295 N 
ATOM      6  C   UNL     1      29.916  -1.673  53.430  1.00  0.00    +0.155 C 
ATOM      7  C   UNL     1      28.283   0.204  53.524  1.00  0.00    +0.147 A 
ATOM      8  N   UNL     1      29.179   1.090  53.971  1.00  0.00    -0.218 NA
ATOM      9  C   UNL     1      28.701   2.332  54.063  1.00  0.00    +0.224 A 
ATOM     10  N   UNL     1      27.469   2.734  53.704  1.00  0.00    -0.236 NA
ATOM     11  C   UNL     1      26.608   1.795  53.221  1.00  0.00    +0.084 A 
ATOM     12  C   UNL     1      26.960   0.468  53.191  1.00  0.00    +0.057 A 
ENDROOT
BRANCH   1  13
ATOM     13  C   UNL     1      23.861  -0.625  52.955  1.00  0.00    -0.025 A 
ATOM     14  C   UNL     1      21.720   0.222  52.158  1.00  0.00    -0.051 A 
ATOM     15  C   UNL     1      21.364   0.531  53.476  1.00  0.00    +0.003 A 
ATOM     16  C   UNL     1      22.972  -0.355  51.906  1.00  0.00    +0.011 A 
ATOM     17  C   UNL     1      22.233   0.241  54.528  1.00  0.00    +0.001 A 
ATOM     18  C   UNL     1      23.474  -0.343  54.269  1.00  0.00    +0.008 A 
ATOM     19  C   UNL     1      20.801   0.564  51.024  1.00  0.00    +0.044 C 
ENDBRANCH   1  13
BRANCH  11  20
ATOM     20  C   UNL     1      25.386   2.373  52.645  1.00  0.00    +0.001 A 
ATOM     21  C   UNL     1      24.408   2.969  53.459  1.00  0.00    +0.010 A 
ATOM     22  C   UNL     1      25.124   2.271  51.267  1.00  0.00    +0.013 A 
ATOM     23  C   UNL     1      23.227   3.474  52.911  1.00  0.00    +0.001 A 
ATOM     24  C   UNL     1      23.938   2.768  50.707  1.00  0.00    -0.050 A 
ATOM     25  C   UNL     1      22.998   3.382  51.540  1.00  0.00    +0.003 A 
ATOM     26  C   UNL     1      23.710   2.693  49.227  1.00  0.00    +0.044 C 
ENDBRANCH  11  20
TORSDOF 2
ENDMDL
MODEL 5
REMARK VINA RESULT:    -6.979      1.501      3.814
REMARK INTER + INTRA:         -10.899
REMARK INTER:                  -8.228
REMARK INTRA:                  -2.671
REMARK UNBOUND:                -3.104
REMARK SMILES Cc1cccc(C=C2C(=O)N(C)c3ncnc(-c4cccc(C)c4)c32)c1
REMARK SMILES IDX 7 1 8 2 9 3 10 4 11 5 12 6 13 7 14 8 15 9 16 10 17 11 25 12
REMARK SMILES IDX 6 13 2 14 3 15 26 16 4 17 5 18 1 19 18 20 19 21 24 22 20 23
REMARK SMILES IDX 22 24 21 25 23 26
REMARK H PARENT
ROOT
ATOM      1  C   UNL     1      21.336   2.275  51.819  1.00  0.00    +0.022 C 
ATOM      2  C   UNL     1      22.597   1.818  51.884  1.00  0.00    +0.054 C 
ATOM      3  C   UNL     1      22.901   0.794  52.949  1.00  0.00    +0.260 C 
ATOM      4  O   UNL     1      22.093   0.164  53.605  1.00  0.00    -0.269 OA
ATOM      5  N   UNL     1      24.280   0.771  53.022  1.00  0.00    -0.295 N 
ATOM      6  C   UNL     1      25.059  -0.048  53.908  1.00  0.00    +0.155 C 
ATOM      7  C   UNL     1      24.859   1.591  52.046  1.00  0.00    +0.147 A 
ATOM      8  N   UNL     1      26.180   1.704  51.872  1.00  0.00    -0.218 NA
ATOM      9  C   UNL     1      26.518   2.463  50.828  1.00  0.00    +0.224 A 
ATOM     10  N   UNL     1      25.668   3.042  49.963  1.00  0.00    -0.236 NA
ATOM     11  C   UNL     1      24.332   2.865  50.166  1.00  0.00    +0.084 A 
ATOM     12  C   UNL     1      23.873   2.196  51.274  1.00  0.00    +0.057 A 
ENDROOT
BRANCH   1  13
ATOM     13  C   UNL     1      20.829   3.445  51.098  1.00  0.00    -0.025 A 
ATOM     14  C   UNL     1      20.971   5.829  50.621  1.00  0.00    -0.051 A 
ATOM     15  C   UNL     1      19.987   5.680  49.638  1.00  0.00    +0.003 A 
ATOM     16  C   UNL     1      21.386   4.705  51.348  1.00  0.00    +0.011 A 
ATOM     17  C   UNL     1      19.447   4.423  49.365  1.00  0.00    +0.001 A 
ATOM     18  C   UNL     1      19.873   3.307  50.086  1.00  0.00    +0.008 A 
ATOM     19  C   UNL     1      21.527   7.185  50.939  1.00  0.00    +0.044 C 
ENDBRANCH   1  13
BRANCH  11  20
ATOM     20  C   UNL     1      23.508   3.335  49.045  1.00  0.00    +0.001 A 
ATOM     21  C   UNL     1      22.748   2.440  48.273  1.00  0.00    +0.010 A 
ATOM     22  C   UNL     1      23.522   4.688  48.662  1.00  0.00    +0.013 A 
ATOM     23  C   UNL     1      22.005   2.887  47.179  1.00  0.00    +0.001 A 
ATOM     24  C   UNL     1      22.784   5.147  47.561  1.00  0.00    -0.050 A 
ATOM     25  C   UNL     1      22.015   4.236  46.831  1.00  0.00    +0.003 A 
ATOM     26  C   UNL     1      22.775   6.605  47.209  1.00  0.00    +0.044 C 
ENDBRANCH  11  20
TORSDOF 2
ENDMDL
MODEL 6
REMARK VINA RESULT:    -6.931      1.782      2.253
REMARK INTER + INTRA:         -10.845
REMARK INTER:                  -7.888
REMARK INTRA:                  -2.956
REMARK UNBOUND:                -3.104
REMARK SMILES Cc1cccc(C=C2C(=O)N(C)c3ncnc(-c4cccc(C)c4)c32)c1
REMARK SMILES IDX 7 1 8 2 9 3 10 4 11 5 12 6 13 7 14 8 15 9 16 10 17 11 25 12
REMARK SMILES IDX 6 13 2 14 3 15 26 16 4 17 5 18 1 19 18 20 19 21 24 22 20 23
REMARK SMILES IDX 22 24 21 25 23 26
REMARK H PARENT
ROOT
ATOM      1  C   UNL     1      23.231   1.658  51.349  1.00  0.00    +0.022 C 
ATOM      2  C   UNL     1      22.505   0.980  52.252  1.00  0.00    +0.054 C 
ATOM      3  C   UNL     1      23.261   0.263  53.343  1.00  0.00    +0.260 C 
ATOM      4  O   UNL     1      24.433   0.415  53.637  1.00  0.00    -0.269 OA
ATOM      5  N   UNL     1      22.338  -0.606  53.889  1.00  0.00    -0.295 N 
ATOM      6  C   UNL     1      22.586  -1.524  54.966  1.00  0.00    +0.155 C 
ATOM      7  C   UNL     1      21.069  -0.429  53.325  1.00  0.00    +0.147 A 
ATOM      8  N   UNL     1      19.989  -1.113  53.717  1.00  0.00    -0.218 NA
ATOM      9  C   UNL     1      18.864  -0.725  53.115  1.00  0.00    +0.224 A 
ATOM     10  N   UNL     1      18.745   0.284  52.235  1.00  0.00    -0.236 NA
ATOM     11  C   UNL     1      19.872   0.971  51.897  1.00  0.00    +0.084 A 
ATOM     12  C   UNL     1      21.101   0.582  52.371  1.00  0.00    +0.057 A 
ENDROOT
BRANCH   1  13
ATOM     13  C   UNL     1      22.803   2.196  50.057  1.00  0.00    -0.025 A 
ATOM     14  C   UNL     1      22.602   4.097  48.546  1.00  0.00    -0.051 A 
ATOM     15  C   UNL     1      22.129   3.239  47.548  1.00  0.00    +0.003 A 
ATOM     16  C   UNL     1      22.936   3.566  49.800  1.00  0.00    +0.011 A 
ATOM     17  C   UNL     1      22.019   1.869  47.787  1.00  0.00    +0.001 A 
ATOM     18  C   UNL     1      22.363   1.348  49.035  1.00  0.00    +0.008 A 
ATOM     19  C   UNL     1      22.689   5.573  48.301  1.00  0.00    +0.044 C 
ENDBRANCH   1  13
BRANCH  11  20
ATOM     20  C   UNL     1      19.597   2.187  51.120  1.00  0.00    +0.001 A 
ATOM     21  C   UNL     1      19.809   3.465  51.665  1.00  0.00    +0.010 A 
ATOM     22  C   UNL     1      19.036   2.105  49.833  1.00  0.00    +0.013 A 
ATOM     23  C   UNL     1      19.501   4.617  50.938  1.00  0.00    +0.001 A 
ATOM     24  C   UNL     1      18.717   3.255  49.096  1.00  0.00    -0.050 A 
ATOM     25  C   UNL     1      18.967   4.512  49.656  1.00  0.00    +0.003 A 
ATOM     26  C   UNL     1      18.169   3.137  47.706  1.00  0.00    +0.044 C 
ENDBRANCH  11  20
TORSDOF 2
ENDMDL
MODEL 7
REMARK VINA RESULT:    -6.867      2.209      4.384
REMARK INTER + INTRA:         -10.773
REMARK INTER:                  -7.779
REMARK INTRA:                  -2.994
REMARK UNBOUND:                -3.104
REMARK SMILES Cc1cccc(C=C2C(=O)N(C)c3ncnc(-c4cccc(C)c4)c32)c1
REMARK SMILES IDX 7 1 8 2 9 3 10 4 11 5 12 6 13 7 14 8 15 9 16 10 17 11 25 12
REMARK SMILES IDX 6 13 2 14 3 15 26 16 4 17 5 18 1 19 18 20 19 21 24 22 20 23
REMARK SMILES IDX 22 24 21 25 23 26
REMARK H PARENT
ROOT
ATOM      1  C   UNL     1      21.146   0.472  52.559  1.00  0.00    +0.022 C 
ATOM      2  C   UNL     1      22.488   0.494  52.563  1.00  0.00    +0.054 C 
ATOM      3  C   UNL     1      23.188  -0.462  53.497  1.00  0.00    +0.260 C 
ATOM      4  O   UNL     1      22.689  -1.407  54.079  1.00  0.00    -0.269 OA
ATOM      5  N   UNL     1      24.487   0.004  53.558  1.00  0.00    -0.295 N 
ATOM      6  C   UNL     1      25.548  -0.572  54.336  1.00  0.00    +0.155 C 
ATOM      7  C   UNL     1      24.688   1.077  52.682  1.00  0.00    +0.147 A 
ATOM      8  N   UNL     1      25.873   1.674  52.514  1.00  0.00    -0.218 NA
ATOM      9  C   UNL     1      25.868   2.613  51.566  1.00  0.00    +0.224 A 
ATOM     10  N   UNL     1      24.827   2.937  50.780  1.00  0.00    -0.236 NA
ATOM     11  C   UNL     1      23.653   2.273  50.970  1.00  0.00    +0.084 A 
ATOM     12  C   UNL     1      23.516   1.368  51.994  1.00  0.00    +0.057 A 
ENDROOT
BRANCH   1  13
ATOM     13  C   UNL     1      20.222   1.452  51.985  1.00  0.00    -0.025 A 
ATOM     14  C   UNL     1      18.370   1.948  50.482  1.00  0.00    -0.051 A 
ATOM     15  C   UNL     1      18.345   3.261  50.964  1.00  0.00    +0.003 A 
ATOM     16  C   UNL     1      19.314   1.049  50.998  1.00  0.00    +0.011 A 
ATOM     17  C   UNL     1      19.229   3.663  51.966  1.00  0.00    +0.001 A 
ATOM     18  C   UNL     1      20.159   2.759  52.481  1.00  0.00    +0.008 A 
ATOM     19  C   UNL     1      17.442   1.525  49.383  1.00  0.00    +0.044 C 
ENDBRANCH   1  13
BRANCH  11  20
ATOM     20  C   UNL     1      22.663   2.534  49.916  1.00  0.00    +0.001 A 
ATOM     21  C   UNL     1      22.279   1.530  49.012  1.00  0.00    +0.010 A 
ATOM     22  C   UNL     1      22.132   3.824  49.735  1.00  0.00    +0.013 A 
ATOM     23  C   UNL     1      21.373   1.798  47.983  1.00  0.00    +0.001 A 
ATOM     24  C   UNL     1      21.226   4.106  48.701  1.00  0.00    -0.050 A 
ATOM     25  C   UNL     1      20.841   3.078  47.836  1.00  0.00    +0.003 A 
ATOM     26  C   UNL     1      20.635   5.477  48.565  1.00  0.00    +0.044 C 
ENDBRANCH  11  20
TORSDOF 2
ENDMDL
MODEL 8
REMARK VINA RESULT:    -6.709      2.686      3.736
REMARK INTER + INTRA:         -10.597
REMARK INTER:                  -7.601
REMARK INTRA:                  -2.996
REMARK UNBOUND:                -3.104
REMARK SMILES Cc1cccc(C=C2C(=O)N(C)c3ncnc(-c4cccc(C)c4)c32)c1
REMARK SMILES IDX 7 1 8 2 9 3 10 4 11 5 12 6 13 7 14 8 15 9 16 10 17 11 25 12
REMARK SMILES IDX 6 13 2 14 3 15 26 16 4 17 5 18 1 19 18 20 19 21 24 22 20 23
REMARK SMILES IDX 22 24 21 25 23 26
REMARK H PARENT
ROOT
ATOM      1  C   UNL     1      21.488   0.547  51.479  1.00  0.00    +0.022 C 
ATOM      2  C   UNL     1      20.229   0.395  51.920  1.00  0.00    +0.054 C 
ATOM      3  C   UNL     1      19.985  -0.687  52.942  1.00  0.00    +0.260 C 
ATOM      4  O   UNL     1      20.828  -1.285  53.584  1.00  0.00    -0.269 OA
ATOM      5  N   UNL     1      18.614  -0.854  52.947  1.00  0.00    -0.295 N 
ATOM      6  C   UNL     1      17.887  -1.791  53.757  1.00  0.00    +0.155 C 
ATOM      7  C   UNL     1      17.980   0.079  52.118  1.00  0.00    +0.147 A 
ATOM      8  N   UNL     1      16.652   0.162  51.988  1.00  0.00    -0.218 NA
ATOM      9  C   UNL     1      16.253   1.179  51.222  1.00  0.00    +0.224 A 
ATOM     10  N   UNL     1      17.050   2.100  50.653  1.00  0.00    -0.236 NA
ATOM     11  C   UNL     1      18.394   1.989  50.848  1.00  0.00    +0.084 A 
ATOM     12  C   UNL     1      18.918   0.916  51.525  1.00  0.00    +0.057 A 
ENDROOT
BRANCH   1  13
ATOM     13  C   UNL     1      21.960   1.300  50.316  1.00  0.00    -0.025 A 
ATOM     14  C   UNL     1      23.398   3.036  49.393  1.00  0.00    -0.051 A 
ATOM     15  C   UNL     1      22.994   2.670  48.104  1.00  0.00    +0.003 A 
ATOM     16  C   UNL     1      22.874   2.346  50.495  1.00  0.00    +0.011 A 
ATOM     17  C   UNL     1      22.104   1.612  47.917  1.00  0.00    +0.001 A 
ATOM     18  C   UNL     1      21.595   0.923  49.019  1.00  0.00    +0.008 A 
ATOM     19  C   UNL     1      24.327   4.195  49.596  1.00  0.00    +0.044 C 
ENDBRANCH   1  13
BRANCH  11  20
ATOM     20  C   UNL     1      19.145   3.164  50.387  1.00  0.00    +0.001 A 
ATOM     21  C   UNL     1      19.789   4.020  51.296  1.00  0.00    +0.010 A 
ATOM     22  C   UNL     1      19.170   3.510  49.024  1.00  0.00    +0.013 A 
ATOM     23  C   UNL     1      20.461   5.162  50.854  1.00  0.00    +0.001 A 
ATOM     24  C   UNL     1      19.836   4.659  48.570  1.00  0.00    -0.050 A 
ATOM     25  C   UNL     1      20.493   5.473  49.497  1.00  0.00    +0.003 A 
ATOM     26  C   UNL     1      19.892   4.973  47.105  1.00  0.00    +0.044 C 
ENDBRANCH  11  20
TORSDOF 2
ENDMDL
MODEL 9
REMARK VINA RESULT:    -6.670      3.439      5.770
REMARK INTER + INTRA:         -10.554
REMARK INTER:                  -7.429
REMARK INTRA:                  -3.125
REMARK UNBOUND:                -3.104
REMARK SMILES Cc1cccc(C=C2C(=O)N(C)c3ncnc(-c4cccc(C)c4)c32)c1
REMARK SMILES IDX 7 1 8 2 9 3 10 4 11 5 12 6 13 7 14 8 15 9 16 10 17 11 25 12
REMARK SMILES IDX 6 13 2 14 3 15 26 16 4 17 5 18 1 19 18 20 19 21 24 22 20 23
REMARK SMILES IDX 22 24 21 25 23 26
REMARK H PARENT
ROOT
ATOM      1  C   UNL     1      25.383   3.733  49.863  1.00  0.00    +0.022 C 
ATOM      2  C   UNL     1      25.621   4.814  49.104  1.00  0.00    +0.054 C 
ATOM      3  C   UNL     1      27.062   5.132  48.794  1.00  0.00    +0.260 C 
ATOM      4  O   UNL     1      28.020   4.398  48.956  1.00  0.00    -0.269 OA
ATOM      5  N   UNL     1      27.037   6.431  48.327  1.00  0.00    -0.295 N 
ATOM      6  C   UNL     1      28.181   7.194  47.908  1.00  0.00    +0.155 C 
ATOM      7  C   UNL     1      25.727   6.911  48.217  1.00  0.00    +0.147 A 
ATOM      8  N   UNL     1      25.428   8.125  47.740  1.00  0.00    -0.218 NA
ATOM      9  C   UNL     1      24.117   8.347  47.632  1.00  0.00    +0.224 A 
ATOM     10  N   UNL     1      23.140   7.465  47.904  1.00  0.00    -0.236 NA
ATOM     11  C   UNL     1      23.502   6.231  48.354  1.00  0.00    +0.084 A 
ATOM     12  C   UNL     1      24.819   5.935  48.608  1.00  0.00    +0.057 A 
ENDROOT
BRANCH   1  13
ATOM     13  C   UNL     1      24.142   3.354  50.542  1.00  0.00    -0.025 A 
ATOM     14  C   UNL     1      22.297   1.784  50.802  1.00  0.00    -0.051 A 
ATOM     15  C   UNL     1      21.845   2.516  51.905  1.00  0.00    +0.003 A 
ATOM     16  C   UNL     1      23.448   2.211  50.124  1.00  0.00    +0.011 A 
ATOM     17  C   UNL     1      22.546   3.640  52.343  1.00  0.00    +0.001 A 
ATOM     18  C   UNL     1      23.696   4.053  51.669  1.00  0.00    +0.008 A 
ATOM     19  C   UNL     1      21.526   0.596  50.311  1.00  0.00    +0.044 C 
ENDBRANCH   1  13
BRANCH  11  20
ATOM     20  C   UNL     1      22.384   5.279  48.395  1.00  0.00    +0.001 A 
ATOM     21  C   UNL     1      22.276   4.240  47.455  1.00  0.00    +0.010 A 
ATOM     22  C   UNL     1      21.345   5.432  49.331  1.00  0.00    +0.013 A 
ATOM     23  C   UNL     1      21.186   3.368  47.470  1.00  0.00    +0.001 A 
ATOM     24  C   UNL     1      20.243   4.565  49.351  1.00  0.00    -0.050 A 
ATOM     25  C   UNL     1      20.179   3.524  48.421  1.00  0.00    +0.003 A 
ATOM     26  C   UNL     1      19.177   4.719  50.395  1.00  0.00    +0.044 C 
ENDBRANCH  11  20
TORSDOF 2
ENDMDL
