REMARK SMILES Cc1cc(C)c(N(C(=O)c2cccc(Cl)c2)c2ccccn2)[nH]1
REMARK SMILES IDX 8 1 9 2 7 3 6 4 2 5 3 6 23 7 4 8 1 9 5 11 17 12 18 13 22 14
REMARK SMILES IDX 19 15 21 16 20 17 10 18 11 19 16 20 12 21 14 22 13 23 15 24
REMARK H PARENT 23 10
ROOT
ATOM      1  C   UNL     1       0.875  -1.203   0.287  1.00  0.00    +0.265 C 
ATOM      2  O   UNL     1       0.746  -2.419   0.463  1.00  0.00    -0.268 OA
ENDROOT
BRANCH   1   3
ATOM      3  N   UNL     1      -0.165  -0.316  -0.061  1.00  0.00    -0.245 N 
BRANCH   3   4
ATOM      4  C   UNL     1      -1.485  -0.812  -0.127  1.00  0.00    +0.122 A 
ATOM      5  C   UNL     1      -3.151  -2.260   0.418  1.00  0.00    +0.014 A 
ATOM      6  C   UNL     1      -3.693  -1.287  -0.386  1.00  0.00    +0.028 A 
ATOM      7  N   UNL     1      -1.812  -1.994   0.513  1.00  0.00    -0.345 N 
ATOM      8  C   UNL     1      -2.647  -0.399  -0.784  1.00  0.00    -0.008 A 
ATOM      9  C   UNL     1      -3.759  -3.443   1.071  1.00  0.00    +0.064 C 
ATOM     10  H   UNL     1      -1.124  -2.579   0.975  1.00  0.00    +0.168 HD
ATOM     11  C   UNL     1      -2.847   0.695  -1.777  1.00  0.00    +0.048 C 
ENDBRANCH   3   4
BRANCH   3  12
ATOM     12  C   UNL     1       0.089   1.034  -0.434  1.00  0.00    +0.141 A 
ATOM     13  C   UNL     1      -0.716   2.061   0.066  1.00  0.00    +0.048 A 
ATOM     14  N   UNL     1       1.173   1.304  -1.200  1.00  0.00    -0.238 NA
ATOM     15  C   UNL     1      -0.426   3.384  -0.263  1.00  0.00    +0.005 A 
ATOM     16  C   UNL     1       1.431   2.594  -1.511  1.00  0.00    +0.113 A 
ATOM     17  C   UNL     1       0.666   3.658  -1.072  1.00  0.00    +0.020 A 
ENDBRANCH   3  12
ENDBRANCH   1   3
BRANCH   1  18
ATOM     18  C   UNL     1       2.229  -0.673   0.568  1.00  0.00    +0.042 A 
ATOM     19  C   UNL     1       2.435   0.234   1.617  1.00  0.00    +0.014 A 
ATOM     20  C   UNL     1       3.307  -1.154  -0.181  1.00  0.00    +0.034 A 
ATOM     21  C   UNL     1       3.724   0.693   1.889  1.00  0.00    +0.002 A 
ATOM     22  C   UNL     1       4.588  -0.686   0.099  1.00  0.00    +0.041 A 
ATOM     23  C   UNL     1       4.800   0.235   1.127  1.00  0.00    +0.020 A 
ATOM     24 Cl   UNL     1       5.925  -1.251  -0.826  1.00  0.00    -0.084 Cl
ENDBRANCH   1  18
TORSDOF 4
