REMARK SMILES Cc1cc(-c2ccc(F)c(Cl)c2)[nH]c1-c1ccccc1
REMARK SMILES IDX 5 1 6 2 7 3 8 4 9 5 10 6 11 7 12 8 4 9 2 10 3 11 14 12 13 13
REMARK SMILES IDX 1 14 15 16 16 17 20 18 17 19 19 20 18 21
REMARK H PARENT 13 15
ROOT
ATOM      1  C   UNL     1      -2.618   0.190   0.268  1.00  0.00    -0.000 A 
ATOM      2  C   UNL     1      -3.561  -0.310   1.180  1.00  0.00    +0.013 A 
ATOM      3  C   UNL     1      -4.846   0.233   1.249  1.00  0.00    +0.041 A 
ATOM      4  C   UNL     1      -5.197   1.278   0.403  1.00  0.00    +0.141 A 
ATOM      5  F   UNL     1      -6.435   1.787   0.485  1.00  0.00    -0.205 F 
ATOM      6  C   UNL     1      -4.277   1.784  -0.511  1.00  0.00    +0.077 A 
ATOM      7 Cl   UNL     1      -4.707   3.076  -1.566  1.00  0.00    -0.081 Cl
ATOM      8  C   UNL     1      -2.990   1.243  -0.581  1.00  0.00    +0.033 A 
ENDROOT
BRANCH   1   9
ATOM      9  C   UNL     1      -1.275  -0.389   0.208  1.00  0.00    +0.046 A 
ATOM     10  C   UNL     1       0.571  -1.732   0.251  1.00  0.00    -0.025 A 
ATOM     11  C   UNL     1      -0.843  -1.687   0.415  1.00  0.00    +0.032 A 
ATOM     12  C   UNL     1       0.983  -0.441  -0.047  1.00  0.00    +0.049 A 
ATOM     13  N   UNL     1      -0.145   0.348  -0.065  1.00  0.00    -0.354 N 
ATOM     14  C   UNL     1       1.421  -2.948   0.370  1.00  0.00    +0.047 C 
ATOM     15  H   UNL     1      -0.129   1.347  -0.218  1.00  0.00    +0.167 HD
BRANCH  12  16
ATOM     16  C   UNL     1       2.312   0.115  -0.294  1.00  0.00    -0.002 A 
ATOM     17  C   UNL     1       3.346  -0.082   0.629  1.00  0.00    +0.010 A 
ATOM     18  C   UNL     1       2.567   0.859  -1.452  1.00  0.00    +0.010 A 
ATOM     19  C   UNL     1       4.614   0.458   0.398  1.00  0.00    +0.001 A 
ATOM     20  C   UNL     1       3.836   1.397  -1.683  1.00  0.00    +0.001 A 
ATOM     21  C   UNL     1       4.858   1.197  -0.757  1.00  0.00    +0.000 A 
ENDBRANCH  12  16
ENDBRANCH   1   9
TORSDOF 2
