MODEL 1
REMARK VINA RESULT:    -8.859      0.000      0.000
REMARK INTER + INTRA:         -11.108
REMARK INTER:                 -11.190
REMARK INTRA:                   0.082
REMARK UNBOUND:                 0.082
REMARK SMILES O=C(O)c1cc(O)c(O)c(N2CCN(C(=O)c3ccc(F)c(Cl)c3)CC2)c1
REMARK SMILES IDX 4 1 5 2 6 3 8 4 10 5 27 6 2 7 1 8 3 9 7 11 11 13 12 14 26 15
REMARK SMILES IDX 13 16 25 17 14 18 15 19 16 20 17 21 18 22 24 23 19 24 22 25
REMARK SMILES IDX 20 26 23 27 21 28 9 29
REMARK H PARENT 3 10 7 12 9 30
ROOT
ATOM      1  C   UNL     1      18.773   0.426  51.272  1.00  0.00    +0.065 A 
ATOM      2  C   UNL     1      18.093  -0.496  52.077  1.00  0.00    +0.066 A 
ATOM      3  C   UNL     1      18.698  -0.952  53.238  1.00  0.00    +0.160 A 
ATOM      4  C   UNL     1      19.961  -0.498  53.597  1.00  0.00    +0.181 A 
ATOM      5  C   UNL     1      20.665   0.424  52.810  1.00  0.00    +0.084 A 
ATOM      6  C   UNL     1      20.056   0.882  51.637  1.00  0.00    +0.045 A 
ENDROOT
BRANCH   1   7
ATOM      7  C   UNL     1      18.186   0.951  50.017  1.00  0.00    +0.335 C 
ATOM      8  O   UNL     1      18.412   2.047  49.535  1.00  0.00    -0.246 OA
BRANCH   7   9
ATOM      9  O   UNL     1      17.348   0.085  49.426  1.00  0.00    -0.478 OA
ATOM     10  H   UNL     1      17.893  -0.716  49.276  1.00  0.00    +0.297 HD
ENDBRANCH   7   9
ENDBRANCH   1   7
BRANCH   3  11
ATOM     11  O   UNL     1      18.042  -1.846  54.032  1.00  0.00    -0.504 OA
ATOM     12  H   UNL     1      18.742  -2.236  54.596  1.00  0.00    +0.293 HD
ENDBRANCH   3  11
BRANCH   5  13
ATOM     13  N   UNL     1      21.959   0.809  53.236  1.00  0.00    -0.365 N 
ATOM     14  C   UNL     1      22.915  -0.319  53.086  1.00  0.00    +0.138 C 
ATOM     15  C   UNL     1      22.428   2.104  52.667  1.00  0.00    +0.138 C 
ATOM     16  C   UNL     1      24.365   0.153  53.303  1.00  0.00    +0.141 C 
ATOM     17  C   UNL     1      23.645   1.957  51.739  1.00  0.00    +0.141 C 
ATOM     18  N   UNL     1      24.748   1.224  52.369  1.00  0.00    -0.335 N 
ATOM     19  C   UNL     1      26.031   1.420  51.871  1.00  0.00    +0.254 C 
ATOM     20  O   UNL     1      26.277   2.123  50.896  1.00  0.00    -0.269 OA
BRANCH  19  21
ATOM     21  C   UNL     1      27.170   0.753  52.539  1.00  0.00    +0.041 A 
ATOM     22  C   UNL     1      28.165   1.502  53.180  1.00  0.00    +0.017 A 
ATOM     23  C   UNL     1      27.270  -0.641  52.456  1.00  0.00    +0.037 A 
ATOM     24  C   UNL     1      29.244   0.849  53.777  1.00  0.00    +0.041 A 
ATOM     25  C   UNL     1      28.350  -1.287  53.055  1.00  0.00    +0.077 A 
ATOM     26  C   UNL     1      29.328  -0.541  53.714  1.00  0.00    +0.141 A 
ATOM     27 Cl   UNL     1      28.462  -3.002  52.973  1.00  0.00    -0.081 Cl
ATOM     28  F   UNL     1      30.372  -1.146  54.298  1.00  0.00    -0.205 F 
ENDBRANCH  19  21
ENDBRANCH   5  13
BRANCH   4  29
ATOM     29  O   UNL     1      20.528  -0.953  54.759  1.00  0.00    -0.503 OA
ATOM     30  H   UNL     1      21.434  -0.577  54.714  1.00  0.00    +0.293 HD
ENDBRANCH   4  29
TORSDOF 6
ENDMDL
MODEL 2
REMARK VINA RESULT:    -8.465      4.781      8.739
REMARK INTER + INTRA:         -10.610
REMARK INTER:                 -10.071
REMARK INTRA:                  -0.539
REMARK UNBOUND:                 0.082
REMARK SMILES O=C(O)c1cc(O)c(O)c(N2CCN(C(=O)c3ccc(F)c(Cl)c3)CC2)c1
REMARK SMILES IDX 4 1 5 2 6 3 8 4 10 5 27 6 2 7 1 8 3 9 7 11 11 13 12 14 26 15
REMARK SMILES IDX 13 16 25 17 14 18 15 19 16 20 17 21 18 22 24 23 19 24 22 25
REMARK SMILES IDX 20 26 23 27 21 28 9 29
REMARK H PARENT 3 10 7 12 9 30
ROOT
ATOM      1  C   UNL     1      28.032  -1.121  53.136  1.00  0.00    +0.065 A 
ATOM      2  C   UNL     1      29.154  -0.538  53.738  1.00  0.00    +0.066 A 
ATOM      3  C   UNL     1      29.152   0.825  53.988  1.00  0.00    +0.160 A 
ATOM      4  C   UNL     1      28.051   1.601  53.646  1.00  0.00    +0.181 A 
ATOM      5  C   UNL     1      26.915   1.044  53.042  1.00  0.00    +0.084 A 
ATOM      6  C   UNL     1      26.918  -0.331  52.788  1.00  0.00    +0.045 A 
ENDROOT
BRANCH   1   7
ATOM      7  C   UNL     1      27.969  -2.571  52.838  1.00  0.00    +0.335 C 
ATOM      8  O   UNL     1      27.192  -3.101  52.064  1.00  0.00    -0.246 OA
BRANCH   7   9
ATOM      9  O   UNL     1      28.878  -3.287  53.519  1.00  0.00    -0.478 OA
ATOM     10  H   UNL     1      29.630  -3.380  52.897  1.00  0.00    +0.297 HD
ENDBRANCH   7   9
ENDBRANCH   1   7
BRANCH   3  11
ATOM     11  O   UNL     1      30.238   1.404  54.578  1.00  0.00    -0.504 OA
ATOM     12  H   UNL     1      30.825   1.646  53.833  1.00  0.00    +0.293 HD
ENDBRANCH   3  11
BRANCH   5  13
ATOM     13  N   UNL     1      25.851   1.913  52.701  1.00  0.00    -0.365 N 
ATOM     14  C   UNL     1      25.903   2.260  51.256  1.00  0.00    +0.138 C 
ATOM     15  C   UNL     1      24.516   1.463  53.187  1.00  0.00    +0.138 C 
ATOM     16  C   UNL     1      24.620   2.992  50.818  1.00  0.00    +0.141 C 
ATOM     17  C   UNL     1      23.540   1.114  52.052  1.00  0.00    +0.141 C 
ATOM     18  N   UNL     1      23.409   2.195  51.069  1.00  0.00    -0.335 N 
ATOM     19  C   UNL     1      22.260   2.233  50.289  1.00  0.00    +0.254 C 
ATOM     20  O   UNL     1      21.382   1.377  50.337  1.00  0.00    -0.269 OA
BRANCH  19  21
ATOM     21  C   UNL     1      22.069   3.357  49.346  1.00  0.00    +0.041 A 
ATOM     22  C   UNL     1      21.746   4.637  49.812  1.00  0.00    +0.017 A 
ATOM     23  C   UNL     1      22.150   3.097  47.972  1.00  0.00    +0.037 A 
ATOM     24  C   UNL     1      21.543   5.673  48.899  1.00  0.00    +0.041 A 
ATOM     25  C   UNL     1      21.946   4.137  47.067  1.00  0.00    +0.077 A 
ATOM     26  C   UNL     1      21.648   5.418  47.533  1.00  0.00    +0.141 A 
ATOM     27 Cl   UNL     1      22.067   3.824  45.379  1.00  0.00    -0.081 Cl
ATOM     28  F   UNL     1      21.452   6.430  46.675  1.00  0.00    -0.205 F 
ENDBRANCH  19  21
ENDBRANCH   5  13
BRANCH   4  29
ATOM     29  O   UNL     1      28.070   2.944  53.920  1.00  0.00    -0.503 OA
ATOM     30  H   UNL     1      28.005   2.961  54.900  1.00  0.00    +0.293 HD
ENDBRANCH   4  29
TORSDOF 6
ENDMDL
MODEL 3
REMARK VINA RESULT:    -8.465      1.209      1.527
REMARK INTER + INTRA:         -10.610
REMARK INTER:                 -10.718
REMARK INTRA:                   0.108
REMARK UNBOUND:                 0.082
REMARK SMILES O=C(O)c1cc(O)c(O)c(N2CCN(C(=O)c3ccc(F)c(Cl)c3)CC2)c1
REMARK SMILES IDX 4 1 5 2 6 3 8 4 10 5 27 6 2 7 1 8 3 9 7 11 11 13 12 14 26 15
REMARK SMILES IDX 13 16 25 17 14 18 15 19 16 20 17 21 18 22 24 23 19 24 22 25
REMARK SMILES IDX 20 26 23 27 21 28 9 29
REMARK H PARENT 3 10 7 12 9 30
ROOT
ATOM      1  C   UNL     1      18.237   0.149  51.314  1.00  0.00    +0.065 A 
ATOM      2  C   UNL     1      17.640  -0.856  52.085  1.00  0.00    +0.066 A 
ATOM      3  C   UNL     1      18.306  -1.333  53.202  1.00  0.00    +0.160 A 
ATOM      4  C   UNL     1      19.549  -0.821  53.551  1.00  0.00    +0.181 A 
ATOM      5  C   UNL     1      20.171   0.185  52.798  1.00  0.00    +0.084 A 
ATOM      6  C   UNL     1      19.499   0.666  51.670  1.00  0.00    +0.045 A 
ENDROOT
BRANCH   1   7
ATOM      7  C   UNL     1      17.581   0.703  50.106  1.00  0.00    +0.335 C 
ATOM      8  O   UNL     1      17.445   1.887  49.855  1.00  0.00    -0.246 OA
BRANCH   7   9
ATOM      9  O   UNL     1      17.128  -0.247  49.273  1.00  0.00    -0.478 OA
ATOM     10  H   UNL     1      16.348   0.160  48.841  1.00  0.00    +0.297 HD
ENDBRANCH   7   9
ENDBRANCH   1   7
BRANCH   3  11
ATOM     11  O   UNL     1      17.732  -2.310  53.963  1.00  0.00    -0.504 OA
ATOM     12  H   UNL     1      18.400  -3.025  53.994  1.00  0.00    +0.293 HD
ENDBRANCH   3  11
BRANCH   5  13
ATOM     13  N   UNL     1      21.451   0.629  53.211  1.00  0.00    -0.365 N 
ATOM     14  C   UNL     1      22.462  -0.445  53.019  1.00  0.00    +0.138 C 
ATOM     15  C   UNL     1      21.841   1.959  52.663  1.00  0.00    +0.138 C 
ATOM     16  C   UNL     1      23.889   0.099  53.221  1.00  0.00    +0.141 C 
ATOM     17  C   UNL     1      23.047   1.895  51.711  1.00  0.00    +0.141 C 
ATOM     18  N   UNL     1      24.198   1.208  52.305  1.00  0.00    -0.335 N 
ATOM     19  C   UNL     1      25.460   1.481  51.789  1.00  0.00    +0.254 C 
ATOM     20  O   UNL     1      25.650   2.217  50.826  1.00  0.00    -0.269 OA
BRANCH  19  21
ATOM     21  C   UNL     1      26.644   0.860  52.422  1.00  0.00    +0.041 A 
ATOM     22  C   UNL     1      26.847  -0.524  52.358  1.00  0.00    +0.017 A 
ATOM     23  C   UNL     1      27.521   1.678  53.144  1.00  0.00    +0.037 A 
ATOM     24  C   UNL     1      27.958  -1.088  52.988  1.00  0.00    +0.041 A 
ATOM     25  C   UNL     1      28.628   1.108  53.771  1.00  0.00    +0.077 A 
ATOM     26  C   UNL     1      28.843  -0.268  53.687  1.00  0.00    +0.141 A 
ATOM     27 Cl   UNL     1      29.719   2.114  54.641  1.00  0.00    -0.081 Cl
ATOM     28  F   UNL     1      29.905  -0.833  54.281  1.00  0.00    -0.205 F 
ENDBRANCH  19  21
ENDBRANCH   5  13
BRANCH   4  29
ATOM     29  O   UNL     1      20.179  -1.300  54.672  1.00  0.00    -0.503 OA
ATOM     30  H   UNL     1      19.548  -1.064  55.386  1.00  0.00    +0.293 HD
ENDBRANCH   4  29
TORSDOF 6
ENDMDL
MODEL 4
REMARK VINA RESULT:    -7.774      4.308      8.805
REMARK INTER + INTRA:          -9.737
REMARK INTER:                  -9.661
REMARK INTRA:                  -0.076
REMARK UNBOUND:                 0.082
REMARK SMILES O=C(O)c1cc(O)c(O)c(N2CCN(C(=O)c3ccc(F)c(Cl)c3)CC2)c1
REMARK SMILES IDX 4 1 5 2 6 3 8 4 10 5 27 6 2 7 1 8 3 9 7 11 11 13 12 14 26 15
REMARK SMILES IDX 13 16 25 17 14 18 15 19 16 20 17 21 18 22 24 23 19 24 22 25
REMARK SMILES IDX 20 26 23 27 21 28 9 29
REMARK H PARENT 3 10 7 12 9 30
ROOT
ATOM      1  C   UNL     1      26.864   0.725  54.732  1.00  0.00    +0.065 A 
ATOM      2  C   UNL     1      28.029   1.389  54.331  1.00  0.00    +0.066 A 
ATOM      3  C   UNL     1      28.006   2.147  53.170  1.00  0.00    +0.160 A 
ATOM      4  C   UNL     1      26.843   2.243  52.417  1.00  0.00    +0.181 A 
ATOM      5  C   UNL     1      25.663   1.588  52.794  1.00  0.00    +0.084 A 
ATOM      6  C   UNL     1      25.686   0.822  53.965  1.00  0.00    +0.045 A 
ENDROOT
BRANCH   1   7
ATOM      7  C   UNL     1      26.820  -0.103  55.960  1.00  0.00    +0.335 C 
ATOM      8  O   UNL     1      27.662  -0.108  56.841  1.00  0.00    -0.246 OA
BRANCH   7   9
ATOM      9  O   UNL     1      25.729  -0.883  56.030  1.00  0.00    -0.478 OA
ATOM     10  H   UNL     1      25.247  -0.701  55.196  1.00  0.00    +0.297 HD
ENDBRANCH   7   9
ENDBRANCH   1   7
BRANCH   3  11
ATOM     11  O   UNL     1      29.134   2.803  52.771  1.00  0.00    -0.504 OA
ATOM     12  H   UNL     1      28.947   3.747  52.948  1.00  0.00    +0.293 HD
ENDBRANCH   3  11
BRANCH   5  13
ATOM     13  N   UNL     1      24.532   1.718  51.952  1.00  0.00    -0.365 N 
ATOM     14  C   UNL     1      23.509   0.693  52.289  1.00  0.00    +0.138 C 
ATOM     15  C   UNL     1      24.009   3.110  51.844  1.00  0.00    +0.138 C 
ATOM     16  C   UNL     1      22.182   0.978  51.562  1.00  0.00    +0.141 C 
ATOM     17  C   UNL     1      22.598   3.277  52.432  1.00  0.00    +0.141 C 
ATOM     18  N   UNL     1      21.642   2.308  51.886  1.00  0.00    -0.335 N 
ATOM     19  C   UNL     1      20.289   2.622  51.943  1.00  0.00    +0.254 C 
ATOM     20  O   UNL     1      19.853   3.636  52.480  1.00  0.00    -0.269 OA
BRANCH  19  21
ATOM     21  C   UNL     1      19.311   1.697  51.330  1.00  0.00    +0.041 A 
ATOM     22  C   UNL     1      18.850   1.904  50.023  1.00  0.00    +0.017 A 
ATOM     23  C   UNL     1      18.804   0.649  52.108  1.00  0.00    +0.037 A 
ATOM     24  C   UNL     1      17.905   1.032  49.479  1.00  0.00    +0.041 A 
ATOM     25  C   UNL     1      17.861  -0.217  51.557  1.00  0.00    +0.077 A 
ATOM     26  C   UNL     1      17.420  -0.025  50.248  1.00  0.00    +0.141 A 
ATOM     27 Cl   UNL     1      17.253  -1.519  52.505  1.00  0.00    -0.081 Cl
ATOM     28  F   UNL     1      16.515  -0.851  49.702  1.00  0.00    -0.205 F 
ENDBRANCH  19  21
ENDBRANCH   5  13
BRANCH   4  29
ATOM     29  O   UNL     1      26.844   3.013  51.282  1.00  0.00    -0.503 OA
ATOM     30  H   UNL     1      26.543   3.885  51.617  1.00  0.00    +0.293 HD
ENDBRANCH   4  29
TORSDOF 6
ENDMDL
MODEL 5
REMARK VINA RESULT:    -7.559      5.152      7.852
REMARK INTER + INTRA:          -9.466
REMARK INTER:                  -8.893
REMARK INTRA:                  -0.573
REMARK UNBOUND:                 0.082
REMARK SMILES O=C(O)c1cc(O)c(O)c(N2CCN(C(=O)c3ccc(F)c(Cl)c3)CC2)c1
REMARK SMILES IDX 4 1 5 2 6 3 8 4 10 5 27 6 2 7 1 8 3 9 7 11 11 13 12 14 26 15
REMARK SMILES IDX 13 16 25 17 14 18 15 19 16 20 17 21 18 22 24 23 19 24 22 25
REMARK SMILES IDX 20 26 23 27 21 28 9 29
REMARK H PARENT 3 10 7 12 9 30
ROOT
ATOM      1  C   UNL     1      23.832  -0.475  54.270  1.00  0.00    +0.065 A 
ATOM      2  C   UNL     1      25.116  -0.871  54.665  1.00  0.00    +0.066 A 
ATOM      3  C   UNL     1      26.205  -0.108  54.274  1.00  0.00    +0.160 A 
ATOM      4  C   UNL     1      26.024   1.033  53.502  1.00  0.00    +0.181 A 
ATOM      5  C   UNL     1      24.750   1.452  53.092  1.00  0.00    +0.084 A 
ATOM      6  C   UNL     1      23.651   0.681  53.485  1.00  0.00    +0.045 A 
ENDROOT
BRANCH   1   7
ATOM      7  C   UNL     1      22.625  -1.246  54.650  1.00  0.00    +0.335 C 
ATOM      8  O   UNL     1      21.579  -1.276  54.027  1.00  0.00    -0.246 OA
BRANCH   7   9
ATOM      9  O   UNL     1      22.783  -1.942  55.788  1.00  0.00    -0.478 OA
ATOM     10  H   UNL     1      22.777  -1.261  56.492  1.00  0.00    +0.297 HD
ENDBRANCH   7   9
ENDBRANCH   1   7
BRANCH   3  11
ATOM     11  O   UNL     1      27.461  -0.480  54.657  1.00  0.00    -0.504 OA
ATOM     12  H   UNL     1      27.333  -1.323  55.139  1.00  0.00    +0.293 HD
ENDBRANCH   3  11
BRANCH   5  13
ATOM     13  N   UNL     1      24.661   2.610  52.283  1.00  0.00    -0.365 N 
ATOM     14  C   UNL     1      24.246   2.251  50.902  1.00  0.00    +0.138 C 
ATOM     15  C   UNL     1      23.885   3.724  52.898  1.00  0.00    +0.138 C 
ATOM     16  C   UNL     1      23.899   3.509  50.084  1.00  0.00    +0.141 C 
ATOM     17  C   UNL     1      22.593   4.060  52.135  1.00  0.00    +0.141 C 
ATOM     18  N   UNL     1      22.828   4.302  50.708  1.00  0.00    -0.335 N 
ATOM     19  C   UNL     1      21.892   5.057  50.010  1.00  0.00    +0.254 C 
ATOM     20  O   UNL     1      20.853   5.476  50.511  1.00  0.00    -0.269 OA
BRANCH  19  21
ATOM     21  C   UNL     1      22.146   5.380  48.589  1.00  0.00    +0.041 A 
ATOM     22  C   UNL     1      22.821   6.554  48.230  1.00  0.00    +0.017 A 
ATOM     23  C   UNL     1      21.636   4.522  47.607  1.00  0.00    +0.037 A 
ATOM     24  C   UNL     1      23.022   6.849  46.881  1.00  0.00    +0.041 A 
ATOM     25  C   UNL     1      21.840   4.824  46.262  1.00  0.00    +0.077 A 
ATOM     26  C   UNL     1      22.534   5.980  45.905  1.00  0.00    +0.141 A 
ATOM     27 Cl   UNL     1      21.232   3.759  45.054  1.00  0.00    -0.081 Cl
ATOM     28  F   UNL     1      22.742   6.284  44.616  1.00  0.00    -0.205 F 
ENDBRANCH  19  21
ENDBRANCH   5  13
BRANCH   4  29
ATOM     29  O   UNL     1      27.118   1.778  53.144  1.00  0.00    -0.503 OA
ATOM     30  H   UNL     1      26.762   2.345  52.426  1.00  0.00    +0.293 HD
ENDBRANCH   4  29
TORSDOF 6
ENDMDL
MODEL 6
REMARK VINA RESULT:    -7.545      4.961      9.000
REMARK INTER + INTRA:          -9.448
REMARK INTER:                  -8.902
REMARK INTRA:                  -0.546
REMARK UNBOUND:                 0.082
REMARK SMILES O=C(O)c1cc(O)c(O)c(N2CCN(C(=O)c3ccc(F)c(Cl)c3)CC2)c1
REMARK SMILES IDX 4 1 5 2 6 3 8 4 10 5 27 6 2 7 1 8 3 9 7 11 11 13 12 14 26 15
REMARK SMILES IDX 13 16 25 17 14 18 15 19 16 20 17 21 18 22 24 23 19 24 22 25
REMARK SMILES IDX 20 26 23 27 21 28 9 29
REMARK H PARENT 3 10 7 12 9 30
ROOT
ATOM      1  C   UNL     1      25.505   1.597  51.941  1.00  0.00    +0.065 A 
ATOM      2  C   UNL     1      26.075   0.795  52.937  1.00  0.00    +0.066 A 
ATOM      3  C   UNL     1      25.262  -0.072  53.651  1.00  0.00    +0.160 A 
ATOM      4  C   UNL     1      23.901  -0.143  53.379  1.00  0.00    +0.181 A 
ATOM      5  C   UNL     1      23.304   0.648  52.388  1.00  0.00    +0.084 A 
ATOM      6  C   UNL     1      24.124   1.524  51.670  1.00  0.00    +0.045 A 
ENDROOT
BRANCH   1   7
ATOM      7  C   UNL     1      26.315   2.547  51.143  1.00  0.00    +0.335 C 
ATOM      8  O   UNL     1      26.020   2.977  50.042  1.00  0.00    -0.246 OA
BRANCH   7   9
ATOM      9  O   UNL     1      27.452   2.912  51.757  1.00  0.00    -0.478 OA
ATOM     10  H   UNL     1      27.207   3.714  52.264  1.00  0.00    +0.297 HD
ENDBRANCH   7   9
ENDBRANCH   1   7
BRANCH   3  11
ATOM     11  O   UNL     1      25.807  -0.862  54.621  1.00  0.00    -0.504 OA
ATOM     12  H   UNL     1      25.045  -1.148  55.165  1.00  0.00    +0.293 HD
ENDBRANCH   3  11
BRANCH   5  13
ATOM     13  N   UNL     1      21.906   0.532  52.199  1.00  0.00    -0.365 N 
ATOM     14  C   UNL     1      21.195   1.662  52.853  1.00  0.00    +0.138 C 
ATOM     15  C   UNL     1      21.501   0.273  50.788  1.00  0.00    +0.138 C 
ATOM     16  C   UNL     1      19.710   1.690  52.445  1.00  0.00    +0.141 C 
ATOM     17  C   UNL     1      20.687   1.421  50.167  1.00  0.00    +0.141 C 
ATOM     18  N   UNL     1      19.533   1.801  50.989  1.00  0.00    -0.335 N 
ATOM     19  C   UNL     1      18.474   2.452  50.366  1.00  0.00    +0.254 C 
ATOM     20  O   UNL     1      18.484   2.778  49.184  1.00  0.00    -0.269 OA
BRANCH  19  21
ATOM     21  C   UNL     1      17.266   2.776  51.157  1.00  0.00    +0.041 A 
ATOM     22  C   UNL     1      17.054   4.073  51.641  1.00  0.00    +0.017 A 
ATOM     23  C   UNL     1      16.375   1.743  51.469  1.00  0.00    +0.037 A 
ATOM     24  C   UNL     1      15.920   4.346  52.408  1.00  0.00    +0.041 A 
ATOM     25  C   UNL     1      15.245   2.023  52.236  1.00  0.00    +0.077 A 
ATOM     26  C   UNL     1      15.021   3.320  52.698  1.00  0.00    +0.141 A 
ATOM     27 Cl   UNL     1      14.137   0.758  52.603  1.00  0.00    -0.081 Cl
ATOM     28  F   UNL     1      13.938   3.607  53.434  1.00  0.00    -0.205 F 
ENDBRANCH  19  21
ENDBRANCH   5  13
BRANCH   4  29
ATOM     29  O   UNL     1      23.124  -1.022  54.089  1.00  0.00    -0.503 OA
ATOM     30  H   UNL     1      23.154  -0.647  54.995  1.00  0.00    +0.293 HD
ENDBRANCH   4  29
TORSDOF 6
ENDMDL
MODEL 7
REMARK VINA RESULT:    -7.482      4.624      9.206
REMARK INTER + INTRA:          -9.368
REMARK INTER:                  -9.066
REMARK INTRA:                  -0.302
REMARK UNBOUND:                 0.082
REMARK SMILES O=C(O)c1cc(O)c(O)c(N2CCN(C(=O)c3ccc(F)c(Cl)c3)CC2)c1
REMARK SMILES IDX 4 1 5 2 6 3 8 4 10 5 27 6 2 7 1 8 3 9 7 11 11 13 12 14 26 15
REMARK SMILES IDX 13 16 25 17 14 18 15 19 16 20 17 21 18 22 24 23 19 24 22 25
REMARK SMILES IDX 20 26 23 27 21 28 9 29
REMARK H PARENT 3 10 7 12 9 30
ROOT
ATOM      1  C   UNL     1      26.320  -0.062  52.381  1.00  0.00    +0.065 A 
ATOM      2  C   UNL     1      27.143   0.974  51.923  1.00  0.00    +0.066 A 
ATOM      3  C   UNL     1      26.582   2.216  51.668  1.00  0.00    +0.160 A 
ATOM      4  C   UNL     1      25.223   2.427  51.864  1.00  0.00    +0.181 A 
ATOM      5  C   UNL     1      24.376   1.408  52.321  1.00  0.00    +0.084 A 
ATOM      6  C   UNL     1      24.941   0.154  52.577  1.00  0.00    +0.045 A 
ENDROOT
BRANCH   1   7
ATOM      7  C   UNL     1      26.853  -1.414  52.671  1.00  0.00    +0.335 C 
ATOM      8  O   UNL     1      26.604  -2.424  52.037  1.00  0.00    -0.246 OA
BRANCH   7   9
ATOM      9  O   UNL     1      27.671  -1.439  53.736  1.00  0.00    -0.478 OA
ATOM     10  H   UNL     1      28.147  -0.584  53.696  1.00  0.00    +0.297 HD
ENDBRANCH   7   9
ENDBRANCH   1   7
BRANCH   3  11
ATOM     11  O   UNL     1      27.375   3.234  51.226  1.00  0.00    -0.504 OA
ATOM     12  H   UNL     1      27.385   3.136  50.252  1.00  0.00    +0.293 HD
ENDBRANCH   3  11
BRANCH   5  13
ATOM     13  N   UNL     1      22.999   1.703  52.465  1.00  0.00    -0.365 N 
ATOM     14  C   UNL     1      22.289   1.527  51.171  1.00  0.00    +0.138 C 
ATOM     15  C   UNL     1      22.350   1.035  53.629  1.00  0.00    +0.138 C 
ATOM     16  C   UNL     1      20.762   1.596  51.364  1.00  0.00    +0.141 C 
ATOM     17  C   UNL     1      21.274   0.015  53.223  1.00  0.00    +0.141 C 
ATOM     18  N   UNL     1      20.274   0.583  52.313  1.00  0.00    -0.335 N 
ATOM     19  C   UNL     1      19.029  -0.031  52.245  1.00  0.00    +0.254 C 
ATOM     20  O   UNL     1      18.747  -1.057  52.857  1.00  0.00    -0.269 OA
BRANCH  19  21
ATOM     21  C   UNL     1      17.978   0.568  51.393  1.00  0.00    +0.041 A 
ATOM     22  C   UNL     1      17.510  -0.101  50.255  1.00  0.00    +0.017 A 
ATOM     23  C   UNL     1      17.511   1.849  51.710  1.00  0.00    +0.037 A 
ATOM     24  C   UNL     1      16.539   0.500  49.452  1.00  0.00    +0.041 A 
ATOM     25  C   UNL     1      16.541   2.443  50.904  1.00  0.00    +0.077 A 
ATOM     26  C   UNL     1      16.057   1.766  49.784  1.00  0.00    +0.141 A 
ATOM     27 Cl   UNL     1      15.950   4.009  51.305  1.00  0.00    -0.081 Cl
ATOM     28  F   UNL     1      15.122   2.321  49.000  1.00  0.00    -0.205 F 
ENDBRANCH  19  21
ENDBRANCH   5  13
BRANCH   4  29
ATOM     29  O   UNL     1      24.698   3.670  51.619  1.00  0.00    -0.503 OA
ATOM     30  H   UNL     1      25.120   4.218  52.316  1.00  0.00    +0.293 HD
ENDBRANCH   4  29
TORSDOF 6
ENDMDL
MODEL 8
REMARK VINA RESULT:    -7.362      5.741      8.107
REMARK INTER + INTRA:          -9.217
REMARK INTER:                  -8.670
REMARK INTRA:                  -0.547
REMARK UNBOUND:                 0.082
REMARK SMILES O=C(O)c1cc(O)c(O)c(N2CCN(C(=O)c3ccc(F)c(Cl)c3)CC2)c1
REMARK SMILES IDX 4 1 5 2 6 3 8 4 10 5 27 6 2 7 1 8 3 9 7 11 11 13 12 14 26 15
REMARK SMILES IDX 13 16 25 17 14 18 15 19 16 20 17 21 18 22 24 23 19 24 22 25
REMARK SMILES IDX 20 26 23 27 21 28 9 29
REMARK H PARENT 3 10 7 12 9 30
ROOT
ATOM      1  C   UNL     1      23.963  -0.434  53.780  1.00  0.00    +0.065 A 
ATOM      2  C   UNL     1      23.098  -1.225  54.547  1.00  0.00    +0.066 A 
ATOM      3  C   UNL     1      21.732  -1.127  54.335  1.00  0.00    +0.160 A 
ATOM      4  C   UNL     1      21.230  -0.257  53.376  1.00  0.00    +0.181 A 
ATOM      5  C   UNL     1      22.073   0.547  52.595  1.00  0.00    +0.084 A 
ATOM      6  C   UNL     1      23.451   0.450  52.810  1.00  0.00    +0.045 A 
ENDROOT
BRANCH   1   7
ATOM      7  C   UNL     1      25.434  -0.487  53.957  1.00  0.00    +0.335 C 
ATOM      8  O   UNL     1      26.258  -0.350  53.071  1.00  0.00    -0.246 OA
BRANCH   7   9
ATOM      9  O   UNL     1      25.802  -0.708  55.229  1.00  0.00    -0.478 OA
ATOM     10  H   UNL     1      26.712  -1.066  55.160  1.00  0.00    +0.297 HD
ENDBRANCH   7   9
ENDBRANCH   1   7
BRANCH   3  11
ATOM     11  O   UNL     1      20.879  -1.896  55.072  1.00  0.00    -0.504 OA
ATOM     12  H   UNL     1      20.544  -1.296  55.769  1.00  0.00    +0.293 HD
ENDBRANCH   3  11
BRANCH   5  13
ATOM     13  N   UNL     1      21.474   1.426  51.661  1.00  0.00    -0.365 N 
ATOM     14  C   UNL     1      21.441   2.813  52.196  1.00  0.00    +0.138 C 
ATOM     15  C   UNL     1      22.012   1.304  50.277  1.00  0.00    +0.138 C 
ATOM     16  C   UNL     1      21.030   3.817  51.103  1.00  0.00    +0.141 C 
ATOM     17  C   UNL     1      22.745   2.567  49.794  1.00  0.00    +0.141 C 
ATOM     18  N   UNL     1      21.934   3.780  49.943  1.00  0.00    -0.335 N 
ATOM     19  C   UNL     1      22.243   4.875  49.144  1.00  0.00    +0.254 C 
ATOM     20  O   UNL     1      23.195   4.898  48.371  1.00  0.00    -0.269 OA
BRANCH  19  21
ATOM     21  C   UNL     1      21.392   6.082  49.220  1.00  0.00    +0.041 A 
ATOM     22  C   UNL     1      21.694   7.117  50.114  1.00  0.00    +0.017 A 
ATOM     23  C   UNL     1      20.239   6.138  48.427  1.00  0.00    +0.037 A 
ATOM     24  C   UNL     1      20.858   8.232  50.186  1.00  0.00    +0.041 A 
ATOM     25  C   UNL     1      19.410   7.255  48.504  1.00  0.00    +0.077 A 
ATOM     26  C   UNL     1      19.724   8.297  49.378  1.00  0.00    +0.141 A 
ATOM     27 Cl   UNL     1      18.004   7.335  47.514  1.00  0.00    -0.081 Cl
ATOM     28  F   UNL     1      18.938   9.380  49.462  1.00  0.00    -0.205 F 
ENDBRANCH  19  21
ENDBRANCH   5  13
BRANCH   4  29
ATOM     29  O   UNL     1      19.875  -0.193  53.175  1.00  0.00    -0.503 OA
ATOM     30  H   UNL     1      19.726  -0.899  52.510  1.00  0.00    +0.293 HD
ENDBRANCH   4  29
TORSDOF 6
ENDMDL
MODEL 9
REMARK VINA RESULT:    -7.244      2.766      4.814
REMARK INTER + INTRA:          -9.068
REMARK INTER:                  -8.849
REMARK INTRA:                  -0.219
REMARK UNBOUND:                 0.082
REMARK SMILES O=C(O)c1cc(O)c(O)c(N2CCN(C(=O)c3ccc(F)c(Cl)c3)CC2)c1
REMARK SMILES IDX 4 1 5 2 6 3 8 4 10 5 27 6 2 7 1 8 3 9 7 11 11 13 12 14 26 15
REMARK SMILES IDX 13 16 25 17 14 18 15 19 16 20 17 21 18 22 24 23 19 24 22 25
REMARK SMILES IDX 20 26 23 27 21 28 9 29
REMARK H PARENT 3 10 7 12 9 30
ROOT
ATOM      1  C   UNL     1      15.902   3.336  51.576  1.00  0.00    +0.065 A 
ATOM      2  C   UNL     1      15.498   3.706  50.287  1.00  0.00    +0.066 A 
ATOM      3  C   UNL     1      16.269   3.317  49.203  1.00  0.00    +0.160 A 
ATOM      4  C   UNL     1      17.426   2.572  49.394  1.00  0.00    +0.181 A 
ATOM      5  C   UNL     1      17.854   2.189  50.673  1.00  0.00    +0.084 A 
ATOM      6  C   UNL     1      17.077   2.582  51.767  1.00  0.00    +0.045 A 
ENDROOT
BRANCH   1   7
ATOM      7  C   UNL     1      15.125   3.720  52.778  1.00  0.00    +0.335 C 
ATOM      8  O   UNL     1      14.071   3.221  53.128  1.00  0.00    -0.246 OA
BRANCH   7   9
ATOM      9  O   UNL     1      15.703   4.706  53.484  1.00  0.00    -0.478 OA
ATOM     10  H   UNL     1      16.627   4.405  53.609  1.00  0.00    +0.297 HD
ENDBRANCH   7   9
ENDBRANCH   1   7
BRANCH   3  11
ATOM     11  O   UNL     1      15.883   3.667  47.941  1.00  0.00    -0.504 OA
ATOM     12  H   UNL     1      16.629   4.196  47.592  1.00  0.00    +0.293 HD
ENDBRANCH   3  11
BRANCH   5  13
ATOM     13  N   UNL     1      19.061   1.456  50.777  1.00  0.00    -0.365 N 
ATOM     14  C   UNL     1      20.185   2.351  51.159  1.00  0.00    +0.138 C 
ATOM     15  C   UNL     1      18.949   0.212  51.591  1.00  0.00    +0.138 C 
ATOM     16  C   UNL     1      21.440   1.537  51.522  1.00  0.00    +0.141 C 
ATOM     17  C   UNL     1      19.791   0.249  52.878  1.00  0.00    +0.141 C 
ATOM     18  N   UNL     1      21.194   0.592  52.624  1.00  0.00    -0.335 N 
ATOM     19  C   UNL     1      22.141   0.209  53.565  1.00  0.00    +0.254 C 
ATOM     20  O   UNL     1      21.856  -0.345  54.623  1.00  0.00    -0.269 OA
BRANCH  19  21
ATOM     21  C   UNL     1      23.571   0.475  53.295  1.00  0.00    +0.041 A 
ATOM     22  C   UNL     1      24.046   1.788  53.179  1.00  0.00    +0.017 A 
ATOM     23  C   UNL     1      24.426  -0.614  53.089  1.00  0.00    +0.037 A 
ATOM     24  C   UNL     1      25.394   2.011  52.896  1.00  0.00    +0.041 A 
ATOM     25  C   UNL     1      25.772  -0.383  52.807  1.00  0.00    +0.077 A 
ATOM     26  C   UNL     1      26.249   0.925  52.715  1.00  0.00    +0.141 A 
ATOM     27 Cl   UNL     1      26.829  -1.721  52.574  1.00  0.00    -0.081 Cl
ATOM     28  F   UNL     1      27.541   1.164  52.446  1.00  0.00    -0.205 F 
ENDBRANCH  19  21
ENDBRANCH   5  13
BRANCH   4  29
ATOM     29  O   UNL     1      18.161   2.188  48.302  1.00  0.00    -0.503 OA
ATOM     30  H   UNL     1      17.580   1.517  47.882  1.00  0.00    +0.293 HD
ENDBRANCH   4  29
TORSDOF 6
ENDMDL
