MODEL 1
REMARK VINA RESULT:    -9.110      0.000      0.000
REMARK INTER + INTRA:         -13.683
REMARK INTER:                 -12.306
REMARK INTRA:                  -1.377
REMARK UNBOUND:                -1.377
REMARK SMILES O=C(c1ccc(C/N=N/Nc2ccc3ncnc(-c4ccccc4)c3c2)[nH]1)N1CCOCC1
REMARK SMILES IDX 8 1 9 2 7 3 6 4 3 5 4 6 27 7 5 8 2 10 1 11 28 12 29 13 33 14
REMARK SMILES IDX 30 15 32 16 31 17 10 18 11 20 12 21 26 22 13 23 25 24 14 25
REMARK SMILES IDX 18 26 15 27 17 28 16 29 19 30 20 31 24 32 21 33 23 34 22 35
REMARK H PARENT 27 9 10 19
ROOT
ATOM      1  N   UNL     1      23.163   3.928  51.194  1.00  0.00    -0.165 NA
ATOM      2  N   UNL     1      24.001   3.161  50.681  1.00  0.00    -0.074 NA
ENDROOT
BRANCH   1   3
ATOM      3  C   UNL     1      23.710   5.267  51.456  1.00  0.00    +0.222 C 
BRANCH   3   4
ATOM      4  C   UNL     1      24.490   5.772  50.284  1.00  0.00    +0.039 A 
ATOM      5  C   UNL     1      26.332   6.083  49.005  1.00  0.00    +0.104 A 
ATOM      6  C   UNL     1      25.250   6.648  48.350  1.00  0.00    +0.034 A 
ATOM      7  N   UNL     1      25.833   5.522  50.161  1.00  0.00    -0.353 N 
ATOM      8  C   UNL     1      24.101   6.479  49.163  1.00  0.00    +0.026 A 
ATOM      9  H   UNL     1      26.395   4.973  50.800  1.00  0.00    +0.166 HD
BRANCH   5  10
ATOM     10  C   UNL     1      27.726   5.924  48.649  1.00  0.00    +0.270 C 
ATOM     11  O   UNL     1      28.200   4.802  48.526  1.00  0.00    -0.267 OA
ATOM     12  N   UNL     1      28.500   7.067  48.429  1.00  0.00    -0.333 N 
ATOM     13  C   UNL     1      29.860   6.825  47.940  1.00  0.00    +0.148 C 
ATOM     14  C   UNL     1      28.415   8.217  49.338  1.00  0.00    +0.148 C 
ATOM     15  C   UNL     1      30.507   8.103  47.412  1.00  0.00    +0.181 C 
ATOM     16  C   UNL     1      29.112   9.444  48.751  1.00  0.00    +0.181 C 
ATOM     17  O   UNL     1      30.468   9.144  48.399  1.00  0.00    -0.378 OA
ENDBRANCH   5  10
ENDBRANCH   3   4
ENDBRANCH   1   3
BRANCH   2  18
ATOM     18  N   UNL     1      23.375   1.980  50.529  1.00  0.00    -0.260 N 
ATOM     19  H   UNL     1      23.714   1.435  49.742  1.00  0.00    +0.192 HD
BRANCH  18  20
ATOM     20  C   UNL     1      23.096   1.209  51.673  1.00  0.00    +0.059 A 
ATOM     21  C   UNL     1      21.813   0.815  52.034  1.00  0.00    +0.030 A 
ATOM     22  C   UNL     1      24.159   0.715  52.434  1.00  0.00    +0.040 A 
ATOM     23  C   UNL     1      21.600   0.021  53.169  1.00  0.00    +0.031 A 
ATOM     24  C   UNL     1      23.948  -0.110  53.570  1.00  0.00    +0.029 A 
ATOM     25  C   UNL     1      22.647  -0.441  53.952  1.00  0.00    +0.074 A 
ATOM     26  C   UNL     1      24.956  -0.644  54.388  1.00  0.00    +0.081 A 
ATOM     27  N   UNL     1      22.377  -1.192  55.027  1.00  0.00    -0.236 NA
ATOM     28  N   UNL     1      24.704  -1.388  55.488  1.00  0.00    -0.236 NA
ATOM     29  C   UNL     1      23.419  -1.622  55.748  1.00  0.00    +0.223 A 
BRANCH  26  30
ATOM     30  C   UNL     1      26.386  -0.437  54.121  1.00  0.00    +0.001 A 
ATOM     31  C   UNL     1      27.080   0.636  54.705  1.00  0.00    +0.010 A 
ATOM     32  C   UNL     1      27.088  -1.304  53.267  1.00  0.00    +0.010 A 
ATOM     33  C   UNL     1      28.434   0.849  54.426  1.00  0.00    +0.001 A 
ATOM     34  C   UNL     1      28.439  -1.091  52.989  1.00  0.00    +0.001 A 
ATOM     35  C   UNL     1      29.110  -0.012  53.566  1.00  0.00    +0.000 A 
ENDBRANCH  26  30
ENDBRANCH  18  20
ENDBRANCH   2  18
TORSDOF 6
ENDMDL
MODEL 2
REMARK VINA RESULT:    -8.909      1.264      1.883
REMARK INTER + INTRA:         -13.411
REMARK INTER:                 -12.544
REMARK INTRA:                  -0.867
REMARK UNBOUND:                -1.377
REMARK SMILES O=C(c1ccc(C/N=N/Nc2ccc3ncnc(-c4ccccc4)c3c2)[nH]1)N1CCOCC1
REMARK SMILES IDX 8 1 9 2 7 3 6 4 3 5 4 6 27 7 5 8 2 10 1 11 28 12 29 13 33 14
REMARK SMILES IDX 30 15 32 16 31 17 10 18 11 20 12 21 26 22 13 23 25 24 14 25
REMARK SMILES IDX 18 26 15 27 17 28 16 29 19 30 20 31 24 32 21 33 23 34 22 35
REMARK H PARENT 27 9 10 19
ROOT
ATOM      1  N   UNL     1      24.349   4.406  51.104  1.00  0.00    -0.165 NA
ATOM      2  N   UNL     1      23.448   3.708  50.598  1.00  0.00    -0.074 NA
ENDROOT
BRANCH   1   3
ATOM      3  C   UNL     1      24.023   5.839  51.095  1.00  0.00    +0.222 C 
BRANCH   3   4
ATOM      4  C   UNL     1      24.892   6.587  50.135  1.00  0.00    +0.039 A 
ATOM      5  C   UNL     1      26.602   7.934  49.512  1.00  0.00    +0.104 A 
ATOM      6  C   UNL     1      25.969   7.480  48.366  1.00  0.00    +0.034 A 
ATOM      7  N   UNL     1      25.950   7.343  50.573  1.00  0.00    -0.353 N 
ATOM      8  C   UNL     1      24.881   6.659  48.756  1.00  0.00    +0.026 A 
ATOM      9  H   UNL     1      26.252   7.440  51.534  1.00  0.00    +0.166 HD
BRANCH   5  10
ATOM     10  C   UNL     1      27.770   8.759  49.730  1.00  0.00    +0.270 C 
ATOM     11  O   UNL     1      27.638   9.950  49.983  1.00  0.00    -0.267 OA
ATOM     12  N   UNL     1      29.035   8.167  49.667  1.00  0.00    -0.333 N 
ATOM     13  C   UNL     1      30.158   9.035  50.032  1.00  0.00    +0.148 C 
ATOM     14  C   UNL     1      29.368   7.221  48.595  1.00  0.00    +0.148 C 
ATOM     15  C   UNL     1      31.438   8.236  50.264  1.00  0.00    +0.181 C 
ATOM     16  C   UNL     1      30.676   6.487  48.887  1.00  0.00    +0.181 C 
ATOM     17  O   UNL     1      31.743   7.413  49.128  1.00  0.00    -0.378 OA
ENDBRANCH   5  10
ENDBRANCH   3   4
ENDBRANCH   1   3
BRANCH   2  18
ATOM     18  N   UNL     1      23.894   2.440  50.648  1.00  0.00    -0.260 N 
ATOM     19  H   UNL     1      24.876   2.341  50.412  1.00  0.00    +0.192 HD
BRANCH  18  20
ATOM     20  C   UNL     1      23.483   1.618  51.714  1.00  0.00    +0.059 A 
ATOM     21  C   UNL     1      22.150   1.328  51.986  1.00  0.00    +0.030 A 
ATOM     22  C   UNL     1      24.452   0.966  52.481  1.00  0.00    +0.040 A 
ATOM     23  C   UNL     1      21.804   0.478  53.044  1.00  0.00    +0.031 A 
ATOM     24  C   UNL     1      24.104   0.084  53.537  1.00  0.00    +0.029 A 
ATOM     25  C   UNL     1      22.759  -0.143  53.834  1.00  0.00    +0.074 A 
ATOM     26  C   UNL     1      25.013  -0.606  54.355  1.00  0.00    +0.081 A 
ATOM     27  N   UNL     1      22.362  -0.940  54.834  1.00  0.00    -0.236 NA
ATOM     28  N   UNL     1      24.633  -1.401  55.381  1.00  0.00    -0.236 NA
ATOM     29  C   UNL     1      23.320  -1.524  55.565  1.00  0.00    +0.223 A 
BRANCH  26  30
ATOM     30  C   UNL     1      26.467  -0.524  54.169  1.00  0.00    +0.001 A 
ATOM     31  C   UNL     1      27.113  -1.298  53.191  1.00  0.00    +0.010 A 
ATOM     32  C   UNL     1      27.245   0.325  54.973  1.00  0.00    +0.010 A 
ATOM     33  C   UNL     1      28.502  -1.241  53.035  1.00  0.00    +0.001 A 
ATOM     34  C   UNL     1      28.632   0.382  54.817  1.00  0.00    +0.001 A 
ATOM     35  C   UNL     1      29.259  -0.404  53.851  1.00  0.00    +0.000 A 
ENDBRANCH  26  30
ENDBRANCH  18  20
ENDBRANCH   2  18
TORSDOF 6
ENDMDL
MODEL 3
REMARK VINA RESULT:    -8.891      2.619      5.014
REMARK INTER + INTRA:         -13.386
REMARK INTER:                 -11.747
REMARK INTRA:                  -1.639
REMARK UNBOUND:                -1.377
REMARK SMILES O=C(c1ccc(C/N=N/Nc2ccc3ncnc(-c4ccccc4)c3c2)[nH]1)N1CCOCC1
REMARK SMILES IDX 8 1 9 2 7 3 6 4 3 5 4 6 27 7 5 8 2 10 1 11 28 12 29 13 33 14
REMARK SMILES IDX 30 15 32 16 31 17 10 18 11 20 12 21 26 22 13 23 25 24 14 25
REMARK SMILES IDX 18 26 15 27 17 28 16 29 19 30 20 31 24 32 21 33 23 34 22 35
REMARK H PARENT 27 9 10 19
ROOT
ATOM      1  N   UNL     1      26.176   0.600  53.003  1.00  0.00    -0.165 NA
ATOM      2  N   UNL     1      25.066   0.787  53.539  1.00  0.00    -0.074 NA
ENDROOT
BRANCH   1   3
ATOM      3  C   UNL     1      26.880   1.857  52.711  1.00  0.00    +0.222 C 
BRANCH   3   4
ATOM      4  C   UNL     1      26.300   2.538  51.513  1.00  0.00    +0.039 A 
ATOM      5  C   UNL     1      26.231   4.039  49.819  1.00  0.00    +0.104 A 
ATOM      6  C   UNL     1      25.117   3.221  49.719  1.00  0.00    +0.034 A 
ATOM      7  N   UNL     1      26.954   3.575  50.897  1.00  0.00    -0.353 N 
ATOM      8  C   UNL     1      25.144   2.300  50.795  1.00  0.00    +0.026 A 
ATOM      9  H   UNL     1      27.861   3.942  51.157  1.00  0.00    +0.166 HD
BRANCH   5  10
ATOM     10  C   UNL     1      26.740   5.115  48.997  1.00  0.00    +0.270 C 
ATOM     11  O   UNL     1      27.766   4.955  48.347  1.00  0.00    -0.267 OA
ATOM     12  N   UNL     1      26.029   6.318  48.944  1.00  0.00    -0.333 N 
ATOM     13  C   UNL     1      26.530   7.307  47.987  1.00  0.00    +0.148 C 
ATOM     14  C   UNL     1      25.492   6.926  50.168  1.00  0.00    +0.148 C 
ATOM     15  C   UNL     1      25.521   8.428  47.750  1.00  0.00    +0.181 C 
ATOM     16  C   UNL     1      24.517   8.058  49.846  1.00  0.00    +0.181 C 
ATOM     17  O   UNL     1      25.125   9.033  48.990  1.00  0.00    -0.378 OA
ENDBRANCH   5  10
ENDBRANCH   3   4
ENDBRANCH   1   3
BRANCH   2  18
ATOM     18  N   UNL     1      24.532  -0.434  53.716  1.00  0.00    -0.260 N 
ATOM     19  H   UNL     1      24.945  -0.954  54.485  1.00  0.00    +0.192 HD
BRANCH  18  20
ATOM     20  C   UNL     1      23.136  -0.586  53.616  1.00  0.00    +0.059 A 
ATOM     21  C   UNL     1      22.369  -1.245  54.570  1.00  0.00    +0.030 A 
ATOM     22  C   UNL     1      22.459   0.044  52.568  1.00  0.00    +0.040 A 
ATOM     23  C   UNL     1      20.978  -1.337  54.431  1.00  0.00    +0.031 A 
ATOM     24  C   UNL     1      21.047  -0.028  52.439  1.00  0.00    +0.029 A 
ATOM     25  C   UNL     1      20.302  -0.748  53.373  1.00  0.00    +0.074 A 
ATOM     26  C   UNL     1      20.291   0.571  51.418  1.00  0.00    +0.081 A 
ATOM     27  N   UNL     1      18.972  -0.878  53.295  1.00  0.00    -0.236 NA
ATOM     28  N   UNL     1      18.950   0.437  51.310  1.00  0.00    -0.236 NA
ATOM     29  C   UNL     1      18.361  -0.286  52.261  1.00  0.00    +0.223 A 
BRANCH  26  30
ATOM     30  C   UNL     1      20.895   1.401  50.368  1.00  0.00    +0.001 A 
ATOM     31  C   UNL     1      20.971   2.797  50.507  1.00  0.00    +0.010 A 
ATOM     32  C   UNL     1      21.401   0.816  49.195  1.00  0.00    +0.010 A 
ATOM     33  C   UNL     1      21.519   3.589  49.492  1.00  0.00    +0.001 A 
ATOM     34  C   UNL     1      21.949   1.606  48.183  1.00  0.00    +0.001 A 
ATOM     35  C   UNL     1      22.004   2.993  48.331  1.00  0.00    +0.000 A 
ENDBRANCH  26  30
ENDBRANCH  18  20
ENDBRANCH   2  18
TORSDOF 6
ENDMDL
MODEL 4
REMARK VINA RESULT:    -8.741      3.456      6.041
REMARK INTER + INTRA:         -13.184
REMARK INTER:                 -11.556
REMARK INTRA:                  -1.627
REMARK UNBOUND:                -1.377
REMARK SMILES O=C(c1ccc(C/N=N/Nc2ccc3ncnc(-c4ccccc4)c3c2)[nH]1)N1CCOCC1
REMARK SMILES IDX 8 1 9 2 7 3 6 4 3 5 4 6 27 7 5 8 2 10 1 11 28 12 29 13 33 14
REMARK SMILES IDX 30 15 32 16 31 17 10 18 11 20 12 21 26 22 13 23 25 24 14 25
REMARK SMILES IDX 18 26 15 27 17 28 16 29 19 30 20 31 24 32 21 33 23 34 22 35
REMARK H PARENT 27 9 10 19
ROOT
ATOM      1  N   UNL     1      23.441   6.144  51.287  1.00  0.00    -0.165 NA
ATOM      2  N   UNL     1      22.718   5.242  50.820  1.00  0.00    -0.074 NA
ENDROOT
BRANCH   1   3
ATOM      3  C   UNL     1      24.691   6.311  50.531  1.00  0.00    +0.222 C 
BRANCH   3   4
ATOM      4  C   UNL     1      25.394   5.003  50.351  1.00  0.00    +0.039 A 
ATOM      5  C   UNL     1      26.007   2.893  50.897  1.00  0.00    +0.104 A 
ATOM      6  C   UNL     1      26.548   3.195  49.657  1.00  0.00    +0.034 A 
ATOM      7  N   UNL     1      25.276   3.998  51.277  1.00  0.00    -0.353 N 
ATOM      8  C   UNL     1      26.188   4.525  49.327  1.00  0.00    +0.026 A 
ATOM      9  H   UNL     1      24.708   4.026  52.115  1.00  0.00    +0.166 HD
BRANCH   5  10
ATOM     10  C   UNL     1      26.012   1.695  51.708  1.00  0.00    +0.270 C 
ATOM     11  O   UNL     1      25.050   0.938  51.684  1.00  0.00    -0.267 OA
ATOM     12  N   UNL     1      27.136   1.415  52.491  1.00  0.00    -0.333 N 
ATOM     13  C   UNL     1      27.122   0.120  53.176  1.00  0.00    +0.148 C 
ATOM     14  C   UNL     1      27.784   2.472  53.278  1.00  0.00    +0.148 C 
ATOM     15  C   UNL     1      28.500  -0.247  53.720  1.00  0.00    +0.181 C 
ATOM     16  C   UNL     1      29.140   2.016  53.812  1.00  0.00    +0.181 C 
ATOM     17  O   UNL     1      29.017   0.798  54.558  1.00  0.00    -0.378 OA
ENDBRANCH   5  10
ENDBRANCH   3   4
ENDBRANCH   1   3
BRANCH   2  18
ATOM     18  N   UNL     1      21.638   5.185  51.621  1.00  0.00    -0.260 N 
ATOM     19  H   UNL     1      21.312   6.094  51.934  1.00  0.00    +0.192 HD
BRANCH  18  20
ATOM     20  C   UNL     1      20.599   4.293  51.295  1.00  0.00    +0.059 A 
ATOM     21  C   UNL     1      19.577   4.603  50.405  1.00  0.00    +0.030 A 
ATOM     22  C   UNL     1      20.641   2.990  51.799  1.00  0.00    +0.040 A 
ATOM     23  C   UNL     1      18.586   3.661  50.097  1.00  0.00    +0.031 A 
ATOM     24  C   UNL     1      19.651   2.027  51.469  1.00  0.00    +0.029 A 
ATOM     25  C   UNL     1      18.599   2.379  50.624  1.00  0.00    +0.074 A 
ATOM     26  C   UNL     1      19.617   0.702  51.934  1.00  0.00    +0.081 A 
ATOM     27  N   UNL     1      17.619   1.528  50.294  1.00  0.00    -0.236 NA
ATOM     28  N   UNL     1      18.628  -0.166  51.628  1.00  0.00    -0.236 NA
ATOM     29  C   UNL     1      17.677   0.298  50.820  1.00  0.00    +0.223 A 
BRANCH  26  30
ATOM     30  C   UNL     1      20.660   0.139  52.801  1.00  0.00    +0.001 A 
ATOM     31  C   UNL     1      20.529   0.171  54.199  1.00  0.00    +0.010 A 
ATOM     32  C   UNL     1      21.817  -0.435  52.250  1.00  0.00    +0.010 A 
ATOM     33  C   UNL     1      21.537  -0.338  55.025  1.00  0.00    +0.001 A 
ATOM     34  C   UNL     1      22.823  -0.944  53.073  1.00  0.00    +0.001 A 
ATOM     35  C   UNL     1      22.684  -0.891  54.460  1.00  0.00    +0.000 A 
ENDBRANCH  26  30
ENDBRANCH  18  20
ENDBRANCH   2  18
TORSDOF 6
ENDMDL
MODEL 5
REMARK VINA RESULT:    -8.703      2.048      3.289
REMARK INTER + INTRA:         -13.133
REMARK INTER:                 -11.504
REMARK INTRA:                  -1.629
REMARK UNBOUND:                -1.377
REMARK SMILES O=C(c1ccc(C/N=N/Nc2ccc3ncnc(-c4ccccc4)c3c2)[nH]1)N1CCOCC1
REMARK SMILES IDX 8 1 9 2 7 3 6 4 3 5 4 6 27 7 5 8 2 10 1 11 28 12 29 13 33 14
REMARK SMILES IDX 30 15 32 16 31 17 10 18 11 20 12 21 26 22 13 23 25 24 14 25
REMARK SMILES IDX 18 26 15 27 17 28 16 29 19 30 20 31 24 32 21 33 23 34 22 35
REMARK H PARENT 27 9 10 19
ROOT
ATOM      1  N   UNL     1      19.742   3.134  51.028  1.00  0.00    -0.165 NA
ATOM      2  N   UNL     1      20.494   2.587  50.199  1.00  0.00    -0.074 NA
ENDROOT
BRANCH   1   3
ATOM      3  C   UNL     1      19.933   4.590  51.087  1.00  0.00    +0.222 C 
BRANCH   3   4
ATOM      4  C   UNL     1      21.374   4.941  51.279  1.00  0.00    +0.039 A 
ATOM      5  C   UNL     1      23.360   5.889  50.745  1.00  0.00    +0.104 A 
ATOM      6  C   UNL     1      23.486   5.290  51.989  1.00  0.00    +0.034 A 
ATOM      7  N   UNL     1      22.053   5.695  50.355  1.00  0.00    -0.353 N 
ATOM      8  C   UNL     1      22.252   4.672  52.311  1.00  0.00    +0.026 A 
ATOM      9  H   UNL     1      21.659   6.096  49.512  1.00  0.00    +0.166 HD
BRANCH   5  10
ATOM     10  C   UNL     1      24.263   6.681  49.939  1.00  0.00    +0.270 C 
ATOM     11  O   UNL     1      23.937   7.809  49.588  1.00  0.00    -0.267 OA
ATOM     12  N   UNL     1      25.506   6.145  49.593  1.00  0.00    -0.333 N 
ATOM     13  C   UNL     1      26.415   7.056  48.893  1.00  0.00    +0.148 C 
ATOM     14  C   UNL     1      25.622   4.755  49.132  1.00  0.00    +0.148 C 
ATOM     15  C   UNL     1      27.842   6.515  48.858  1.00  0.00    +0.181 C 
ATOM     16  C   UNL     1      27.080   4.301  49.094  1.00  0.00    +0.181 C 
ATOM     17  O   UNL     1      27.876   5.191  48.302  1.00  0.00    -0.378 OA
ENDBRANCH   5  10
ENDBRANCH   3   4
ENDBRANCH   1   3
BRANCH   2  18
ATOM     18  N   UNL     1      20.232   1.270  50.276  1.00  0.00    -0.260 N 
ATOM     19  H   UNL     1      20.490   0.751  49.442  1.00  0.00    +0.192 HD
BRANCH  18  20
ATOM     20  C   UNL     1      20.516   0.591  51.476  1.00  0.00    +0.059 A 
ATOM     21  C   UNL     1      19.565  -0.130  52.189  1.00  0.00    +0.030 A 
ATOM     22  C   UNL     1      21.837   0.538  51.929  1.00  0.00    +0.040 A 
ATOM     23  C   UNL     1      19.915  -0.811  53.362  1.00  0.00    +0.031 A 
ATOM     24  C   UNL     1      22.198  -0.172  53.104  1.00  0.00    +0.029 A 
ATOM     25  C   UNL     1      21.217  -0.836  53.840  1.00  0.00    +0.074 A 
ATOM     26  C   UNL     1      23.497  -0.272  53.628  1.00  0.00    +0.081 A 
ATOM     27  N   UNL     1      21.485  -1.501  54.971  1.00  0.00    -0.236 NA
ATOM     28  N   UNL     1      23.786  -0.923  54.777  1.00  0.00    -0.236 NA
ATOM     29  C   UNL     1      22.757  -1.504  55.389  1.00  0.00    +0.223 A 
BRANCH  26  30
ATOM     30  C   UNL     1      24.666   0.327  52.971  1.00  0.00    +0.001 A 
ATOM     31  C   UNL     1      24.689   1.695  52.650  1.00  0.00    +0.010 A 
ATOM     32  C   UNL     1      25.782  -0.457  52.639  1.00  0.00    +0.010 A 
ATOM     33  C   UNL     1      25.789   2.259  51.997  1.00  0.00    +0.001 A 
ATOM     34  C   UNL     1      26.882   0.106  51.988  1.00  0.00    +0.001 A 
ATOM     35  C   UNL     1      26.883   1.462  51.663  1.00  0.00    +0.000 A 
ENDBRANCH  26  30
ENDBRANCH  18  20
ENDBRANCH   2  18
TORSDOF 6
ENDMDL
MODEL 6
REMARK VINA RESULT:    -8.694      2.032      2.774
REMARK INTER + INTRA:         -13.120
REMARK INTER:                 -11.049
REMARK INTRA:                  -2.070
REMARK UNBOUND:                -1.377
REMARK SMILES O=C(c1ccc(C/N=N/Nc2ccc3ncnc(-c4ccccc4)c3c2)[nH]1)N1CCOCC1
REMARK SMILES IDX 8 1 9 2 7 3 6 4 3 5 4 6 27 7 5 8 2 10 1 11 28 12 29 13 33 14
REMARK SMILES IDX 30 15 32 16 31 17 10 18 11 20 12 21 26 22 13 23 25 24 14 25
REMARK SMILES IDX 18 26 15 27 17 28 16 29 19 30 20 31 24 32 21 33 23 34 22 35
REMARK H PARENT 27 9 10 19
ROOT
ATOM      1  N   UNL     1      21.749   2.111  49.147  1.00  0.00    -0.165 NA
ATOM      2  N   UNL     1      21.773   2.621  50.285  1.00  0.00    -0.074 NA
ENDROOT
BRANCH   1   3
ATOM      3  C   UNL     1      22.839   2.598  48.289  1.00  0.00    +0.222 C 
BRANCH   3   4
ATOM      4  C   UNL     1      23.876   3.321  49.088  1.00  0.00    +0.039 A 
ATOM      5  C   UNL     1      24.902   5.124  49.995  1.00  0.00    +0.104 A 
ATOM      6  C   UNL     1      25.567   3.987  50.423  1.00  0.00    +0.034 A 
ATOM      7  N   UNL     1      23.853   4.687  49.215  1.00  0.00    -0.353 N 
ATOM      8  C   UNL     1      24.943   2.859  49.834  1.00  0.00    +0.026 A 
ATOM      9  H   UNL     1      23.152   5.307  48.829  1.00  0.00    +0.166 HD
BRANCH   5  10
ATOM     10  C   UNL     1      25.066   6.531  50.291  1.00  0.00    +0.270 C 
ATOM     11  O   UNL     1      24.258   7.100  51.016  1.00  0.00    -0.267 OA
ATOM     12  N   UNL     1      26.165   7.210  49.758  1.00  0.00    -0.333 N 
ATOM     13  C   UNL     1      26.336   8.592  50.213  1.00  0.00    +0.148 C 
ATOM     14  C   UNL     1      26.558   7.016  48.357  1.00  0.00    +0.148 C 
ATOM     15  C   UNL     1      27.717   9.137  49.859  1.00  0.00    +0.181 C 
ATOM     16  C   UNL     1      27.935   7.616  48.076  1.00  0.00    +0.181 C 
ATOM     17  O   UNL     1      27.980   8.998  48.454  1.00  0.00    -0.378 OA
ENDBRANCH   5  10
ENDBRANCH   3   4
ENDBRANCH   1   3
BRANCH   2  18
ATOM     18  N   UNL     1      20.714   2.111  50.938  1.00  0.00    -0.260 N 
ATOM     19  H   UNL     1      19.948   1.838  50.329  1.00  0.00    +0.192 HD
BRANCH  18  20
ATOM     20  C   UNL     1      20.939   1.213  51.999  1.00  0.00    +0.059 A 
ATOM     21  C   UNL     1      19.936   0.439  52.570  1.00  0.00    +0.030 A 
ATOM     22  C   UNL     1      22.248   0.999  52.440  1.00  0.00    +0.040 A 
ATOM     23  C   UNL     1      20.227  -0.460  53.605  1.00  0.00    +0.031 A 
ATOM     24  C   UNL     1      22.549   0.070  53.471  1.00  0.00    +0.029 A 
ATOM     25  C   UNL     1      21.518  -0.651  54.075  1.00  0.00    +0.074 A 
ATOM     26  C   UNL     1      23.832  -0.203  53.973  1.00  0.00    +0.081 A 
ATOM     27  N   UNL     1      21.729  -1.522  55.070  1.00  0.00    -0.236 NA
ATOM     28  N   UNL     1      24.064  -1.063  54.989  1.00  0.00    -0.236 NA
ATOM     29  C   UNL     1      22.992  -1.679  55.484  1.00  0.00    +0.223 A 
BRANCH  26  30
ATOM     30  C   UNL     1      25.043   0.429  53.436  1.00  0.00    +0.001 A 
ATOM     31  C   UNL     1      25.791  -0.191  52.421  1.00  0.00    +0.010 A 
ATOM     32  C   UNL     1      25.487   1.666  53.933  1.00  0.00    +0.010 A 
ATOM     33  C   UNL     1      26.961   0.397  51.932  1.00  0.00    +0.001 A 
ATOM     34  C   UNL     1      26.656   2.254  53.444  1.00  0.00    +0.001 A 
ATOM     35  C   UNL     1      27.394   1.617  52.446  1.00  0.00    +0.000 A 
ENDBRANCH  26  30
ENDBRANCH  18  20
ENDBRANCH   2  18
TORSDOF 6
ENDMDL
MODEL 7
REMARK VINA RESULT:    -8.553      3.440      5.739
REMARK INTER + INTRA:         -12.929
REMARK INTER:                 -11.457
REMARK INTRA:                  -1.473
REMARK UNBOUND:                -1.377
REMARK SMILES O=C(c1ccc(C/N=N/Nc2ccc3ncnc(-c4ccccc4)c3c2)[nH]1)N1CCOCC1
REMARK SMILES IDX 8 1 9 2 7 3 6 4 3 5 4 6 27 7 5 8 2 10 1 11 28 12 29 13 33 14
REMARK SMILES IDX 30 15 32 16 31 17 10 18 11 20 12 21 26 22 13 23 25 24 14 25
REMARK SMILES IDX 18 26 15 27 17 28 16 29 19 30 20 31 24 32 21 33 23 34 22 35
REMARK H PARENT 27 9 10 19
ROOT
ATOM      1  N   UNL     1      26.092   1.312  52.828  1.00  0.00    -0.165 NA
ATOM      2  N   UNL     1      25.232   0.456  52.542  1.00  0.00    -0.074 NA
ENDROOT
BRANCH   1   3
ATOM      3  C   UNL     1      26.912   1.696  51.670  1.00  0.00    +0.222 C 
BRANCH   3   4
ATOM      4  C   UNL     1      26.291   2.827  50.916  1.00  0.00    +0.039 A 
ATOM      5  C   UNL     1      24.811   4.502  50.549  1.00  0.00    +0.104 A 
ATOM      6  C   UNL     1      25.721   4.490  49.503  1.00  0.00    +0.034 A 
ATOM      7  N   UNL     1      25.206   3.504  51.414  1.00  0.00    -0.353 N 
ATOM      8  C   UNL     1      26.630   3.425  49.718  1.00  0.00    +0.026 A 
ATOM      9  H   UNL     1      24.761   3.336  52.308  1.00  0.00    +0.166 HD
BRANCH   5  10
ATOM     10  C   UNL     1      23.701   5.369  50.878  1.00  0.00    +0.270 C 
ATOM     11  O   UNL     1      23.078   5.195  51.918  1.00  0.00    -0.267 OA
ATOM     12  N   UNL     1      23.374   6.408  50.002  1.00  0.00    -0.333 N 
ATOM     13  C   UNL     1      22.329   7.323  50.469  1.00  0.00    +0.148 C 
ATOM     14  C   UNL     1      23.330   6.182  48.552  1.00  0.00    +0.148 C 
ATOM     15  C   UNL     1      22.274   8.596  49.628  1.00  0.00    +0.181 C 
ATOM     16  C   UNL     1      23.244   7.500  47.785  1.00  0.00    +0.181 C 
ATOM     17  O   UNL     1      22.132   8.285  48.234  1.00  0.00    -0.378 OA
ENDBRANCH   5  10
ENDBRANCH   3   4
ENDBRANCH   1   3
BRANCH   2  18
ATOM     18  N   UNL     1      24.587   0.184  53.690  1.00  0.00    -0.260 N 
ATOM     19  H   UNL     1      24.817   0.818  54.450  1.00  0.00    +0.192 HD
BRANCH  18  20
ATOM     20  C   UNL     1      23.223  -0.162  53.636  1.00  0.00    +0.059 A 
ATOM     21  C   UNL     1      22.581  -0.890  54.631  1.00  0.00    +0.030 A 
ATOM     22  C   UNL     1      22.438   0.333  52.592  1.00  0.00    +0.040 A 
ATOM     23  C   UNL     1      21.213  -1.179  54.536  1.00  0.00    +0.031 A 
ATOM     24  C   UNL     1      21.047   0.063  52.507  1.00  0.00    +0.029 A 
ATOM     25  C   UNL     1      20.434  -0.724  53.483  1.00  0.00    +0.074 A 
ATOM     26  C   UNL     1      20.189   0.518  51.493  1.00  0.00    +0.081 A 
ATOM     27  N   UNL     1      19.134  -1.039  53.448  1.00  0.00    -0.236 NA
ATOM     28  N   UNL     1      18.878   0.196  51.429  1.00  0.00    -0.236 NA
ATOM     29  C   UNL     1      18.420  -0.571  52.417  1.00  0.00    +0.223 A 
BRANCH  26  30
ATOM     30  C   UNL     1      20.644   1.389  50.401  1.00  0.00    +0.001 A 
ATOM     31  C   UNL     1      20.413   2.774  50.441  1.00  0.00    +0.010 A 
ATOM     32  C   UNL     1      21.313   0.854  49.289  1.00  0.00    +0.010 A 
ATOM     33  C   UNL     1      20.820   3.599  49.387  1.00  0.00    +0.001 A 
ATOM     34  C   UNL     1      21.720   1.677  48.237  1.00  0.00    +0.001 A 
ATOM     35  C   UNL     1      21.470   3.048  48.285  1.00  0.00    +0.000 A 
ENDBRANCH  26  30
ENDBRANCH  18  20
ENDBRANCH   2  18
TORSDOF 6
ENDMDL
MODEL 8
REMARK VINA RESULT:    -8.491      4.725      7.068
REMARK INTER + INTRA:         -12.846
REMARK INTER:                 -11.385
REMARK INTRA:                  -1.461
REMARK UNBOUND:                -1.377
REMARK SMILES O=C(c1ccc(C/N=N/Nc2ccc3ncnc(-c4ccccc4)c3c2)[nH]1)N1CCOCC1
REMARK SMILES IDX 8 1 9 2 7 3 6 4 3 5 4 6 27 7 5 8 2 10 1 11 28 12 29 13 33 14
REMARK SMILES IDX 30 15 32 16 31 17 10 18 11 20 12 21 26 22 13 23 25 24 14 25
REMARK SMILES IDX 18 26 15 27 17 28 16 29 19 30 20 31 24 32 21 33 23 34 22 35
REMARK H PARENT 27 9 10 19
ROOT
ATOM      1  N   UNL     1      23.270   2.982  48.695  1.00  0.00    -0.165 NA
ATOM      2  N   UNL     1      23.350   3.353  49.883  1.00  0.00    -0.074 NA
ENDROOT
BRANCH   1   3
ATOM      3  C   UNL     1      22.339   3.805  47.909  1.00  0.00    +0.222 C 
BRANCH   3   4
ATOM      4  C   UNL     1      21.300   4.433  48.783  1.00  0.00    +0.039 A 
ATOM      5  C   UNL     1      19.614   4.464  50.293  1.00  0.00    +0.104 A 
ATOM      6  C   UNL     1      19.938   5.774  49.978  1.00  0.00    +0.034 A 
ATOM      7  N   UNL     1      20.486   3.669  49.581  1.00  0.00    -0.353 N 
ATOM      8  C   UNL     1      20.974   5.755  49.012  1.00  0.00    +0.026 A 
ATOM      9  H   UNL     1      20.525   2.662  49.678  1.00  0.00    +0.166 HD
BRANCH   5  10
ATOM     10  C   UNL     1      18.674   3.879  51.225  1.00  0.00    +0.270 C 
ATOM     11  O   UNL     1      19.086   3.284  52.214  1.00  0.00    -0.267 OA
ATOM     12  N   UNL     1      17.305   4.028  50.986  1.00  0.00    -0.333 N 
ATOM     13  C   UNL     1      16.421   3.529  52.042  1.00  0.00    +0.148 C 
ATOM     14  C   UNL     1      16.754   3.834  49.639  1.00  0.00    +0.148 C 
ATOM     15  C   UNL     1      14.989   4.027  51.864  1.00  0.00    +0.181 C 
ATOM     16  C   UNL     1      15.310   4.327  49.552  1.00  0.00    +0.181 C 
ATOM     17  O   UNL     1      14.494   3.708  50.554  1.00  0.00    -0.378 OA
ENDBRANCH   5  10
ENDBRANCH   3   4
ENDBRANCH   1   3
BRANCH   2  18
ATOM     18  N   UNL     1      24.203   2.500  50.478  1.00  0.00    -0.260 N 
ATOM     19  H   UNL     1      25.128   2.888  50.635  1.00  0.00    +0.192 HD
BRANCH  18  20
ATOM     20  C   UNL     1      23.735   1.706  51.542  1.00  0.00    +0.059 A 
ATOM     21  C   UNL     1      22.387   1.471  51.784  1.00  0.00    +0.030 A 
ATOM     22  C   UNL     1      24.660   1.025  52.338  1.00  0.00    +0.040 A 
ATOM     23  C   UNL     1      21.983   0.646  52.842  1.00  0.00    +0.031 A 
ATOM     24  C   UNL     1      24.253   0.169  53.395  1.00  0.00    +0.029 A 
ATOM     25  C   UNL     1      22.894  -0.003  53.661  1.00  0.00    +0.074 A 
ATOM     26  C   UNL     1      25.115  -0.548  54.241  1.00  0.00    +0.081 A 
ATOM     27  N   UNL     1      22.443  -0.774  54.659  1.00  0.00    -0.236 NA
ATOM     28  N   UNL     1      24.681  -1.316  55.265  1.00  0.00    -0.236 NA
ATOM     29  C   UNL     1      23.360  -1.386  55.418  1.00  0.00    +0.223 A 
BRANCH  26  30
ATOM     30  C   UNL     1      26.575  -0.523  54.089  1.00  0.00    +0.001 A 
ATOM     31  C   UNL     1      27.363   0.365  54.840  1.00  0.00    +0.010 A 
ATOM     32  C   UNL     1      27.216  -1.382  53.181  1.00  0.00    +0.010 A 
ATOM     33  C   UNL     1      28.751   0.409  54.673  1.00  0.00    +0.001 A 
ATOM     34  C   UNL     1      28.602  -1.340  53.015  1.00  0.00    +0.001 A 
ATOM     35  C   UNL     1      29.368  -0.441  53.758  1.00  0.00    +0.000 A 
ENDBRANCH  26  30
ENDBRANCH  18  20
ENDBRANCH   2  18
TORSDOF 6
ENDMDL
MODEL 9
REMARK VINA RESULT:    -8.375      2.956      5.165
REMARK INTER + INTRA:         -12.689
REMARK INTER:                 -11.122
REMARK INTRA:                  -1.567
REMARK UNBOUND:                -1.377
REMARK SMILES O=C(c1ccc(C/N=N/Nc2ccc3ncnc(-c4ccccc4)c3c2)[nH]1)N1CCOCC1
REMARK SMILES IDX 8 1 9 2 7 3 6 4 3 5 4 6 27 7 5 8 2 10 1 11 28 12 29 13 33 14
REMARK SMILES IDX 30 15 32 16 31 17 10 18 11 20 12 21 26 22 13 23 25 24 14 25
REMARK SMILES IDX 18 26 15 27 17 28 16 29 19 30 20 31 24 32 21 33 23 34 22 35
REMARK H PARENT 27 9 10 19
ROOT
ATOM      1  N   UNL     1      26.714   5.122  48.663  1.00  0.00    -0.165 NA
ATOM      2  N   UNL     1      26.330   4.771  49.796  1.00  0.00    -0.074 NA
ENDROOT
BRANCH   1   3
ATOM      3  C   UNL     1      26.570   6.568  48.443  1.00  0.00    +0.222 C 
BRANCH   3   4
ATOM      4  C   UNL     1      25.132   6.976  48.436  1.00  0.00    +0.039 A 
ATOM      5  C   UNL     1      22.891   6.650  48.394  1.00  0.00    +0.104 A 
ATOM      6  C   UNL     1      23.130   8.010  48.515  1.00  0.00    +0.034 A 
ATOM      7  N   UNL     1      24.128   6.041  48.388  1.00  0.00    -0.353 N 
ATOM      8  C   UNL     1      24.532   8.217  48.513  1.00  0.00    +0.026 A 
ATOM      9  H   UNL     1      24.252   5.037  48.385  1.00  0.00    +0.166 HD
BRANCH   5  10
ATOM     10  C   UNL     1      21.679   5.861  48.377  1.00  0.00    +0.270 C 
ATOM     11  O   UNL     1      20.983   5.833  47.369  1.00  0.00    -0.267 OA
ATOM     12  N   UNL     1      21.336   5.125  49.515  1.00  0.00    -0.333 N 
ATOM     13  C   UNL     1      20.172   4.247  49.373  1.00  0.00    +0.148 C 
ATOM     14  C   UNL     1      21.446   5.719  50.853  1.00  0.00    +0.148 C 
ATOM     15  C   UNL     1      20.075   3.247  50.522  1.00  0.00    +0.181 C 
ATOM     16  C   UNL     1      21.306   4.659  51.946  1.00  0.00    +0.181 C 
ATOM     17  O   UNL     1      20.089   3.919  51.791  1.00  0.00    -0.378 OA
ENDBRANCH   5  10
ENDBRANCH   3   4
ENDBRANCH   1   3
BRANCH   2  18
ATOM     18  N   UNL     1      26.490   3.437  49.842  1.00  0.00    -0.260 N 
ATOM     19  H   UNL     1      27.461   3.142  49.882  1.00  0.00    +0.192 HD
BRANCH  18  20
ATOM     20  C   UNL     1      25.634   2.679  50.664  1.00  0.00    +0.059 A 
ATOM     21  C   UNL     1      24.248   2.742  50.585  1.00  0.00    +0.030 A 
ATOM     22  C   UNL     1      26.188   1.733  51.530  1.00  0.00    +0.040 A 
ATOM     23  C   UNL     1      23.447   1.939  51.410  1.00  0.00    +0.031 A 
ATOM     24  C   UNL     1      25.378   0.901  52.348  1.00  0.00    +0.029 A 
ATOM     25  C   UNL     1      23.990   1.025  52.301  1.00  0.00    +0.074 A 
ATOM     26  C   UNL     1      25.853  -0.069  53.245  1.00  0.00    +0.081 A 
ATOM     27  N   UNL     1      23.170   0.292  53.064  1.00  0.00    -0.236 NA
ATOM     28  N   UNL     1      25.044  -0.806  54.038  1.00  0.00    -0.236 NA
ATOM     29  C   UNL     1      23.738  -0.582  53.903  1.00  0.00    +0.223 A 
BRANCH  26  30
ATOM     30  C   UNL     1      27.282  -0.370  53.404  1.00  0.00    +0.001 A 
ATOM     31  C   UNL     1      27.820  -1.580  52.934  1.00  0.00    +0.010 A 
ATOM     32  C   UNL     1      28.140   0.542  54.040  1.00  0.00    +0.010 A 
ATOM     33  C   UNL     1      29.174  -1.879  53.113  1.00  0.00    +0.001 A 
ATOM     34  C   UNL     1      29.492   0.244  54.218  1.00  0.00    +0.001 A 
ATOM     35  C   UNL     1      30.008  -0.968  53.758  1.00  0.00    +0.000 A 
ENDBRANCH  26  30
ENDBRANCH  18  20
ENDBRANCH   2  18
TORSDOF 6
ENDMDL
