REMARK SMILES O=[N+]([O-])c1ccc(O)cc1-c1ccc(N2CCOCC2)[nH]1
REMARK SMILES IDX 4 1 5 2 6 3 7 4 9 5 10 6 2 7 1 8 3 9 11 10 12 11 21 12 13 13
REMARK SMILES IDX 14 14 15 16 16 17 20 18 17 19 19 20 18 21 8 22
REMARK H PARENT 21 15 8 23
ROOT
ATOM      1  C   UNL     1       3.484  -0.620  -0.318  1.00  0.00    +0.278 A 
ATOM      2  C   UNL     1       4.768  -0.190   0.055  1.00  0.00    +0.090 A 
ATOM      3  C   UNL     1       4.955   1.134   0.448  1.00  0.00    +0.053 A 
ATOM      4  C   UNL     1       3.863   1.997   0.462  1.00  0.00    +0.116 A 
ATOM      5  C   UNL     1       2.590   1.564   0.087  1.00  0.00    +0.063 A 
ATOM      6  C   UNL     1       2.374   0.237  -0.315  1.00  0.00    +0.079 A 
ENDROOT
BRANCH   1   7
ATOM      7  N   UNL     1       3.338  -2.016  -0.670  1.00  0.00    +0.063 N 
ATOM      8  O   UNL     1       3.736  -2.353  -1.794  1.00  0.00    -0.258 OA
ATOM      9  O   UNL     1       2.885  -2.772   0.199  1.00  0.00    -0.258 OA
ENDBRANCH   1   7
BRANCH   6  10
ATOM     10  C   UNL     1       1.029  -0.172  -0.721  1.00  0.00    +0.054 A 
ATOM     11  C   UNL     1       0.581  -0.810  -1.863  1.00  0.00    +0.031 A 
ATOM     12  N   UNL     1      -0.083   0.048   0.064  1.00  0.00    -0.341 N 
ATOM     13  C   UNL     1      -0.822  -0.973  -1.747  1.00  0.00    +0.047 A 
ATOM     14  C   UNL     1      -1.220  -0.422  -0.547  1.00  0.00    +0.106 A 
ATOM     15  H   UNL     1      -0.060   0.461   0.983  1.00  0.00    +0.168 HD
BRANCH  14  16
ATOM     16  N   UNL     1      -2.442  -0.326   0.040  1.00  0.00    -0.354 N 
ATOM     17  C   UNL     1      -3.608  -1.017  -0.535  1.00  0.00    +0.146 C 
ATOM     18  C   UNL     1      -2.732   0.570   1.169  1.00  0.00    +0.146 C 
ATOM     19  C   UNL     1      -4.677  -1.234   0.549  1.00  0.00    +0.181 C 
ATOM     20  C   UNL     1      -4.195   1.043   1.117  1.00  0.00    +0.181 C 
ATOM     21  O   UNL     1      -5.153  -0.023   1.156  1.00  0.00    -0.378 OA
ENDBRANCH  14  16
ENDBRANCH   6  10
BRANCH   4  22
ATOM     22  O   UNL     1       3.996   3.300   0.840  1.00  0.00    -0.508 OA
ATOM     23  H   UNL     1       4.930   3.481   1.040  1.00  0.00    +0.293 HD
ENDBRANCH   4  22
TORSDOF 4
