MODEL 1
REMARK VINA RESULT:    -8.484      0.000      0.000
REMARK INTER + INTRA:          -9.969
REMARK INTER:                  -9.476
REMARK INTRA:                  -0.493
REMARK UNBOUND:                -0.493
REMARK SMILES Cc1cccc(-c2cc(C)c(-c3ccccc3)[nH]2)c1
REMARK SMILES IDX 1 1 2 2 3 3 4 4 5 5 6 6 19 7 7 8 8 9 18 10 9 11 11 12 10 14
REMARK SMILES IDX 12 15 13 16 17 17 14 18 16 19 15 20
REMARK H PARENT 18 13
ROOT
ATOM      1  C   UNL     1      18.788   0.304  51.632  1.00  0.00    +0.044 C 
ATOM      2  C   UNL     1      19.951  -0.124  52.478  1.00  0.00    -0.050 A 
ATOM      3  C   UNL     1      19.758  -0.986  53.564  1.00  0.00    +0.003 A 
ATOM      4  C   UNL     1      20.843  -1.398  54.335  1.00  0.00    +0.001 A 
ATOM      5  C   UNL     1      22.131  -0.961  54.022  1.00  0.00    +0.010 A 
ATOM      6  C   UNL     1      22.353  -0.116  52.928  1.00  0.00    -0.002 A 
ATOM      7  C   UNL     1      21.252   0.296  52.162  1.00  0.00    +0.013 A 
ENDROOT
BRANCH   6   8
ATOM      8  C   UNL     1      23.710   0.325  52.600  1.00  0.00    +0.046 A 
ATOM      9  C   UNL     1      24.155   1.386  51.831  1.00  0.00    +0.032 A 
ATOM     10  N   UNL     1      24.839  -0.296  53.081  1.00  0.00    -0.354 N 
ATOM     11  C   UNL     1      25.580   1.390  51.838  1.00  0.00    -0.025 A 
ATOM     12  C   UNL     1      25.982   0.326  52.632  1.00  0.00    +0.049 A 
ATOM     13  H   UNL     1      24.834  -1.081  53.716  1.00  0.00    +0.167 HD
ATOM     14  C   UNL     1      26.448   2.358  51.114  1.00  0.00    +0.047 C 
BRANCH  12  15
ATOM     15  C   UNL     1      27.311  -0.142  53.018  1.00  0.00    -0.002 A 
ATOM     16  C   UNL     1      28.245   0.744  53.570  1.00  0.00    +0.010 A 
ATOM     17  C   UNL     1      27.673  -1.482  52.836  1.00  0.00    +0.010 A 
ATOM     18  C   UNL     1      29.518   0.298  53.932  1.00  0.00    +0.001 A 
ATOM     19  C   UNL     1      28.947  -1.928  53.195  1.00  0.00    +0.001 A 
ATOM     20  C   UNL     1      29.869  -1.038  53.744  1.00  0.00    +0.000 A 
ENDBRANCH  12  15
ENDBRANCH   6   8
TORSDOF 2
ENDMDL
MODEL 2
REMARK VINA RESULT:    -8.105      2.548      5.571
REMARK INTER + INTRA:          -9.545
REMARK INTER:                  -9.034
REMARK INTRA:                  -0.511
REMARK UNBOUND:                -0.493
REMARK SMILES Cc1cccc(-c2cc(C)c(-c3ccccc3)[nH]2)c1
REMARK SMILES IDX 1 1 2 2 3 3 4 4 5 5 6 6 19 7 7 8 8 9 18 10 9 11 11 12 10 14
REMARK SMILES IDX 12 15 13 16 17 17 14 18 16 19 15 20
REMARK H PARENT 18 13
ROOT
ATOM      1  C   UNL     1      27.985   5.623  48.322  1.00  0.00    +0.044 C 
ATOM      2  C   UNL     1      26.708   5.158  48.957  1.00  0.00    -0.050 A 
ATOM      3  C   UNL     1      25.503   5.816  48.689  1.00  0.00    +0.003 A 
ATOM      4  C   UNL     1      24.315   5.369  49.265  1.00  0.00    +0.001 A 
ATOM      5  C   UNL     1      24.320   4.253  50.104  1.00  0.00    +0.010 A 
ATOM      6  C   UNL     1      25.510   3.564  50.369  1.00  0.00    -0.002 A 
ATOM      7  C   UNL     1      26.700   4.027  49.788  1.00  0.00    +0.013 A 
ENDROOT
BRANCH   6   8
ATOM      8  C   UNL     1      25.501   2.387  51.239  1.00  0.00    +0.046 A 
ATOM      9  C   UNL     1      24.477   1.807  51.966  1.00  0.00    +0.032 A 
ATOM     10  N   UNL     1      26.611   1.601  51.453  1.00  0.00    -0.354 N 
ATOM     11  C   UNL     1      24.986   0.660  52.642  1.00  0.00    -0.025 A 
ATOM     12  C   UNL     1      26.326   0.554  52.300  1.00  0.00    +0.049 A 
ATOM     13  H   UNL     1      27.508   1.746  51.014  1.00  0.00    +0.167 HD
ATOM     14  C   UNL     1      24.209  -0.230  53.546  1.00  0.00    +0.047 C 
BRANCH  12  15
ATOM     15  C   UNL     1      27.341  -0.430  52.670  1.00  0.00    -0.002 A 
ATOM     16  C   UNL     1      27.108  -1.798  52.482  1.00  0.00    +0.010 A 
ATOM     17  C   UNL     1      28.560  -0.019  53.224  1.00  0.00    +0.010 A 
ATOM     18  C   UNL     1      28.076  -2.738  52.843  1.00  0.00    +0.001 A 
ATOM     19  C   UNL     1      29.527  -0.959  53.587  1.00  0.00    +0.001 A 
ATOM     20  C   UNL     1      29.285  -2.319  53.396  1.00  0.00    +0.000 A 
ENDBRANCH  12  15
ENDBRANCH   6   8
TORSDOF 2
ENDMDL
MODEL 3
REMARK VINA RESULT:    -8.026      2.308      6.627
REMARK INTER + INTRA:          -9.457
REMARK INTER:                  -9.125
REMARK INTRA:                  -0.332
REMARK UNBOUND:                -0.493
REMARK SMILES Cc1cccc(-c2cc(C)c(-c3ccccc3)[nH]2)c1
REMARK SMILES IDX 1 1 2 2 3 3 4 4 5 5 6 6 19 7 7 8 8 9 18 10 9 11 11 12 10 14
REMARK SMILES IDX 12 15 13 16 17 17 14 18 16 19 15 20
REMARK H PARENT 18 13
ROOT
ATOM      1  C   UNL     1      28.251   5.462  48.294  1.00  0.00    +0.044 C 
ATOM      2  C   UNL     1      26.948   5.067  48.924  1.00  0.00    -0.050 A 
ATOM      3  C   UNL     1      25.796   5.830  48.706  1.00  0.00    +0.003 A 
ATOM      4  C   UNL     1      24.582   5.449  49.276  1.00  0.00    +0.001 A 
ATOM      5  C   UNL     1      24.508   4.295  50.059  1.00  0.00    +0.010 A 
ATOM      6  C   UNL     1      25.643   3.503  50.273  1.00  0.00    -0.002 A 
ATOM      7  C   UNL     1      26.859   3.900  49.698  1.00  0.00    +0.013 A 
ENDROOT
BRANCH   6   8
ATOM      8  C   UNL     1      25.550   2.288  51.084  1.00  0.00    +0.046 A 
ATOM      9  C   UNL     1      26.520   1.374  51.457  1.00  0.00    +0.032 A 
ATOM     10  N   UNL     1      24.380   1.860  51.668  1.00  0.00    -0.354 N 
ATOM     11  C   UNL     1      25.915   0.369  52.268  1.00  0.00    -0.025 A 
ATOM     12  C   UNL     1      24.573   0.701  52.385  1.00  0.00    +0.049 A 
ATOM     13  H   UNL     1      23.500   2.353  51.615  1.00  0.00    +0.167 HD
ATOM     14  C   UNL     1      26.612  -0.807  52.854  1.00  0.00    +0.047 C 
BRANCH  12  15
ATOM     15  C   UNL     1      23.480   0.057  53.109  1.00  0.00    -0.002 A 
ATOM     16  C   UNL     1      23.724  -0.621  54.311  1.00  0.00    +0.010 A 
ATOM     17  C   UNL     1      22.173   0.102  52.609  1.00  0.00    +0.010 A 
ATOM     18  C   UNL     1      22.679  -1.243  54.998  1.00  0.00    +0.001 A 
ATOM     19  C   UNL     1      21.129  -0.522  53.295  1.00  0.00    +0.001 A 
ATOM     20  C   UNL     1      21.382  -1.194  54.490  1.00  0.00    +0.000 A 
ENDBRANCH  12  15
ENDBRANCH   6   8
TORSDOF 2
ENDMDL
MODEL 4
REMARK VINA RESULT:    -7.939      1.410      7.263
REMARK INTER + INTRA:          -9.360
REMARK INTER:                  -8.753
REMARK INTRA:                  -0.607
REMARK UNBOUND:                -0.493
REMARK SMILES Cc1cccc(-c2cc(C)c(-c3ccccc3)[nH]2)c1
REMARK SMILES IDX 1 1 2 2 3 3 4 4 5 5 6 6 19 7 7 8 8 9 18 10 9 11 11 12 10 14
REMARK SMILES IDX 12 15 13 16 17 17 14 18 16 19 15 20
REMARK H PARENT 18 13
ROOT
ATOM      1  C   UNL     1      29.677  -1.326  53.526  1.00  0.00    +0.044 C 
ATOM      2  C   UNL     1      28.652  -0.231  53.551  1.00  0.00    -0.050 A 
ATOM      3  C   UNL     1      29.049   1.111  53.552  1.00  0.00    +0.003 A 
ATOM      4  C   UNL     1      28.094   2.126  53.555  1.00  0.00    +0.001 A 
ATOM      5  C   UNL     1      26.734   1.809  53.545  1.00  0.00    +0.010 A 
ATOM      6  C   UNL     1      26.312   0.474  53.522  1.00  0.00    -0.002 A 
ATOM      7  C   UNL     1      27.283  -0.539  53.525  1.00  0.00    +0.013 A 
ENDROOT
BRANCH   6   8
ATOM      8  C   UNL     1      24.884   0.153  53.498  1.00  0.00    +0.046 A 
ATOM      9  C   UNL     1      24.152  -0.765  54.229  1.00  0.00    +0.032 A 
ATOM     10  N   UNL     1      23.981   0.803  52.689  1.00  0.00    -0.354 N 
ATOM     11  C   UNL     1      22.784  -0.676  53.838  1.00  0.00    -0.025 A 
ATOM     12  C   UNL     1      22.706   0.318  52.873  1.00  0.00    +0.049 A 
ATOM     13  H   UNL     1      24.212   1.566  52.070  1.00  0.00    +0.167 HD
ATOM     14  C   UNL     1      21.673  -1.509  54.372  1.00  0.00    +0.047 C 
BRANCH  12  15
ATOM     15  C   UNL     1      21.566   0.858  52.134  1.00  0.00    -0.002 A 
ATOM     16  C   UNL     1      20.656   1.719  52.760  1.00  0.00    +0.010 A 
ATOM     17  C   UNL     1      21.365   0.518  50.791  1.00  0.00    +0.010 A 
ATOM     18  C   UNL     1      19.563   2.229  52.056  1.00  0.00    +0.001 A 
ATOM     19  C   UNL     1      20.272   1.026  50.087  1.00  0.00    +0.001 A 
ATOM     20  C   UNL     1      19.370   1.882  50.720  1.00  0.00    +0.000 A 
ENDBRANCH  12  15
ENDBRANCH   6   8
TORSDOF 2
ENDMDL
MODEL 5
REMARK VINA RESULT:    -7.896      2.809      5.271
REMARK INTER + INTRA:          -9.313
REMARK INTER:                  -8.761
REMARK INTRA:                  -0.552
REMARK UNBOUND:                -0.493
REMARK SMILES Cc1cccc(-c2cc(C)c(-c3ccccc3)[nH]2)c1
REMARK SMILES IDX 1 1 2 2 3 3 4 4 5 5 6 6 19 7 7 8 8 9 18 10 9 11 11 12 10 14
REMARK SMILES IDX 12 15 13 16 17 17 14 18 16 19 15 20
REMARK H PARENT 18 13
ROOT
ATOM      1  C   UNL     1      21.318  -1.369  54.387  1.00  0.00    +0.044 C 
ATOM      2  C   UNL     1      22.594  -0.700  53.970  1.00  0.00    -0.050 A 
ATOM      3  C   UNL     1      23.792  -0.984  54.636  1.00  0.00    +0.003 A 
ATOM      4  C   UNL     1      24.981  -0.376  54.233  1.00  0.00    +0.001 A 
ATOM      5  C   UNL     1      24.984   0.511  53.155  1.00  0.00    +0.010 A 
ATOM      6  C   UNL     1      23.801   0.794  52.459  1.00  0.00    -0.002 A 
ATOM      7  C   UNL     1      22.611   0.180  52.878  1.00  0.00    +0.013 A 
ENDROOT
BRANCH   6   8
ATOM      8  C   UNL     1      23.819   1.715  51.322  1.00  0.00    +0.046 A 
ATOM      9  C   UNL     1      22.876   1.954  50.337  1.00  0.00    +0.032 A 
ATOM     10  N   UNL     1      24.862   2.575  51.065  1.00  0.00    -0.354 N 
ATOM     11  C   UNL     1      23.372   2.965  49.464  1.00  0.00    -0.025 A 
ATOM     12  C   UNL     1      24.618   3.338  49.947  1.00  0.00    +0.049 A 
ATOM     13  H   UNL     1      25.683   2.667  51.646  1.00  0.00    +0.167 HD
ATOM     14  C   UNL     1      22.670   3.494  48.264  1.00  0.00    +0.047 C 
BRANCH  12  15
ATOM     15  C   UNL     1      25.575   4.337  49.477  1.00  0.00    -0.002 A 
ATOM     16  C   UNL     1      26.867   3.958  49.089  1.00  0.00    +0.010 A 
ATOM     17  C   UNL     1      25.217   5.690  49.413  1.00  0.00    +0.010 A 
ATOM     18  C   UNL     1      27.783   4.915  48.646  1.00  0.00    +0.001 A 
ATOM     19  C   UNL     1      26.134   6.646  48.973  1.00  0.00    +0.001 A 
ATOM     20  C   UNL     1      27.417   6.259  48.589  1.00  0.00    +0.000 A 
ENDBRANCH  12  15
ENDBRANCH   6   8
TORSDOF 2
ENDMDL
MODEL 6
REMARK VINA RESULT:    -7.855      3.128      5.210
REMARK INTER + INTRA:          -9.266
REMARK INTER:                  -8.714
REMARK INTRA:                  -0.552
REMARK UNBOUND:                -0.493
REMARK SMILES Cc1cccc(-c2cc(C)c(-c3ccccc3)[nH]2)c1
REMARK SMILES IDX 1 1 2 2 3 3 4 4 5 5 6 6 19 7 7 8 8 9 18 10 9 11 11 12 10 14
REMARK SMILES IDX 12 15 13 16 17 17 14 18 16 19 15 20
REMARK H PARENT 18 13
ROOT
ATOM      1  C   UNL     1      24.439  -1.258  55.191  1.00  0.00    +0.044 C 
ATOM      2  C   UNL     1      23.314  -0.646  54.410  1.00  0.00    -0.050 A 
ATOM      3  C   UNL     1      21.998  -0.730  54.880  1.00  0.00    +0.003 A 
ATOM      4  C   UNL     1      20.957  -0.143  54.163  1.00  0.00    +0.001 A 
ATOM      5  C   UNL     1      21.223   0.542  52.976  1.00  0.00    +0.010 A 
ATOM      6  C   UNL     1      22.534   0.658  52.496  1.00  0.00    -0.002 A 
ATOM      7  C   UNL     1      23.573   0.058  53.225  1.00  0.00    +0.013 A 
ENDROOT
BRANCH   6   8
ATOM      8  C   UNL     1      22.804   1.389  51.257  1.00  0.00    +0.046 A 
ATOM      9  C   UNL     1      22.120   1.413  50.055  1.00  0.00    +0.032 A 
ATOM     10  N   UNL     1      23.859   2.261  51.112  1.00  0.00    -0.354 N 
ATOM     11  C   UNL     1      22.788   2.304  49.165  1.00  0.00    -0.025 A 
ATOM     12  C   UNL     1      23.874   2.824  49.856  1.00  0.00    +0.049 A 
ATOM     13  H   UNL     1      24.515   2.492  51.844  1.00  0.00    +0.167 HD
ATOM     14  C   UNL     1      22.384   2.596  47.764  1.00  0.00    +0.047 C 
BRANCH  12  15
ATOM     15  C   UNL     1      24.893   3.794  49.463  1.00  0.00    -0.002 A 
ATOM     16  C   UNL     1      26.247   3.437  49.449  1.00  0.00    +0.010 A 
ATOM     17  C   UNL     1      24.531   5.097  49.101  1.00  0.00    +0.010 A 
ATOM     18  C   UNL     1      27.222   4.367  49.080  1.00  0.00    +0.001 A 
ATOM     19  C   UNL     1      25.505   6.028  48.734  1.00  0.00    +0.001 A 
ATOM     20  C   UNL     1      26.851   5.662  48.723  1.00  0.00    +0.000 A 
ENDBRANCH  12  15
ENDBRANCH   6   8
TORSDOF 2
ENDMDL
MODEL 7
REMARK VINA RESULT:    -7.836      0.928      6.909
REMARK INTER + INTRA:          -9.245
REMARK INTER:                  -8.944
REMARK INTRA:                  -0.301
REMARK UNBOUND:                -0.493
REMARK SMILES Cc1cccc(-c2cc(C)c(-c3ccccc3)[nH]2)c1
REMARK SMILES IDX 1 1 2 2 3 3 4 4 5 5 6 6 19 7 7 8 8 9 18 10 9 11 11 12 10 14
REMARK SMILES IDX 12 15 13 16 17 17 14 18 16 19 15 20
REMARK H PARENT 18 13
ROOT
ATOM      1  C   UNL     1      28.971  -2.754  53.158  1.00  0.00    +0.044 C 
ATOM      2  C   UNL     1      28.674  -1.294  53.334  1.00  0.00    -0.050 A 
ATOM      3  C   UNL     1      29.703  -0.391  53.622  1.00  0.00    +0.003 A 
ATOM      4  C   UNL     1      29.426   0.967  53.766  1.00  0.00    +0.001 A 
ATOM      5  C   UNL     1      28.120   1.437  53.611  1.00  0.00    +0.010 A 
ATOM      6  C   UNL     1      27.077   0.555  53.300  1.00  0.00    -0.002 A 
ATOM      7  C   UNL     1      27.368  -0.811  53.164  1.00  0.00    +0.013 A 
ENDROOT
BRANCH   6   8
ATOM      8  C   UNL     1      25.714   1.060  53.127  1.00  0.00    +0.046 A 
ATOM      9  C   UNL     1      25.253   2.307  52.745  1.00  0.00    +0.032 A 
ATOM     10  N   UNL     1      24.594   0.281  53.309  1.00  0.00    -0.354 N 
ATOM     11  C   UNL     1      23.829   2.280  52.714  1.00  0.00    -0.025 A 
ATOM     12  C   UNL     1      23.443   0.996  53.069  1.00  0.00    +0.049 A 
ATOM     13  H   UNL     1      24.612  -0.701  53.547  1.00  0.00    +0.167 HD
ATOM     14  C   UNL     1      22.947   3.428  52.372  1.00  0.00    +0.047 C 
BRANCH  12  15
ATOM     15  C   UNL     1      22.122   0.382  53.184  1.00  0.00    -0.002 A 
ATOM     16  C   UNL     1      21.904  -0.676  54.076  1.00  0.00    +0.010 A 
ATOM     17  C   UNL     1      21.055   0.840  52.401  1.00  0.00    +0.010 A 
ATOM     18  C   UNL     1      20.642  -1.267  54.180  1.00  0.00    +0.001 A 
ATOM     19  C   UNL     1      19.795   0.248  52.504  1.00  0.00    +0.001 A 
ATOM     20  C   UNL     1      19.588  -0.806  53.394  1.00  0.00    +0.000 A 
ENDBRANCH  12  15
ENDBRANCH   6   8
TORSDOF 2
ENDMDL
MODEL 8
REMARK VINA RESULT:    -7.614      2.032      3.434
REMARK INTER + INTRA:          -8.998
REMARK INTER:                  -8.377
REMARK INTRA:                  -0.621
REMARK UNBOUND:                -0.493
REMARK SMILES Cc1cccc(-c2cc(C)c(-c3ccccc3)[nH]2)c1
REMARK SMILES IDX 1 1 2 2 3 3 4 4 5 5 6 6 19 7 7 8 8 9 18 10 9 11 11 12 10 14
REMARK SMILES IDX 12 15 13 16 17 17 14 18 16 19 15 20
REMARK H PARENT 18 13
ROOT
ATOM      1  C   UNL     1      23.125   4.322  48.682  1.00  0.00    +0.044 C 
ATOM      2  C   UNL     1      22.569   3.122  49.390  1.00  0.00    -0.050 A 
ATOM      3  C   UNL     1      21.337   2.580  49.006  1.00  0.00    +0.003 A 
ATOM      4  C   UNL     1      20.832   1.453  49.652  1.00  0.00    +0.001 A 
ATOM      5  C   UNL     1      21.560   0.850  50.680  1.00  0.00    +0.010 A 
ATOM      6  C   UNL     1      22.806   1.361  51.068  1.00  0.00    -0.002 A 
ATOM      7  C   UNL     1      23.300   2.499  50.413  1.00  0.00    +0.013 A 
ENDROOT
BRANCH   6   8
ATOM      8  C   UNL     1      23.566   0.713  52.137  1.00  0.00    +0.046 A 
ATOM      9  C   UNL     1      23.141   0.032  53.264  1.00  0.00    +0.032 A 
ATOM     10  N   UNL     1      24.941   0.662  52.158  1.00  0.00    -0.354 N 
ATOM     11  C   UNL     1      24.285  -0.423  53.983  1.00  0.00    -0.025 A 
ATOM     12  C   UNL     1      25.400  -0.016  53.265  1.00  0.00    +0.049 A 
ATOM     13  H   UNL     1      25.539   1.034  51.435  1.00  0.00    +0.167 HD
ATOM     14  C   UNL     1      24.259  -1.179  55.264  1.00  0.00    +0.047 C 
BRANCH  12  15
ATOM     15  C   UNL     1      26.827  -0.215  53.505  1.00  0.00    -0.002 A 
ATOM     16  C   UNL     1      27.561   0.718  54.248  1.00  0.00    +0.010 A 
ATOM     17  C   UNL     1      27.484  -1.340  52.990  1.00  0.00    +0.010 A 
ATOM     18  C   UNL     1      28.927   0.530  54.470  1.00  0.00    +0.001 A 
ATOM     19  C   UNL     1      28.850  -1.526  53.210  1.00  0.00    +0.001 A 
ATOM     20  C   UNL     1      29.572  -0.591  53.951  1.00  0.00    +0.000 A 
ENDBRANCH  12  15
ENDBRANCH   6   8
TORSDOF 2
ENDMDL
MODEL 9
REMARK VINA RESULT:    -7.539      3.185      6.695
REMARK INTER + INTRA:          -8.914
REMARK INTER:                  -8.452
REMARK INTRA:                  -0.461
REMARK UNBOUND:                -0.493
REMARK SMILES Cc1cccc(-c2cc(C)c(-c3ccccc3)[nH]2)c1
REMARK SMILES IDX 1 1 2 2 3 3 4 4 5 5 6 6 19 7 7 8 8 9 18 10 9 11 11 12 10 14
REMARK SMILES IDX 12 15 13 16 17 17 14 18 16 19 15 20
REMARK H PARENT 18 13
ROOT
ATOM      1  C   UNL     1      24.741   7.591  48.531  1.00  0.00    +0.044 C 
ATOM      2  C   UNL     1      25.224   6.205  48.842  1.00  0.00    -0.050 A 
ATOM      3  C   UNL     1      26.582   5.887  48.731  1.00  0.00    +0.003 A 
ATOM      4  C   UNL     1      27.031   4.604  49.041  1.00  0.00    +0.001 A 
ATOM      5  C   UNL     1      26.127   3.632  49.475  1.00  0.00    +0.010 A 
ATOM      6  C   UNL     1      24.767   3.933  49.615  1.00  0.00    -0.002 A 
ATOM      7  C   UNL     1      24.327   5.226  49.295  1.00  0.00    +0.013 A 
ENDROOT
BRANCH   6   8
ATOM      8  C   UNL     1      23.831   2.910  50.084  1.00  0.00    +0.046 A 
ATOM      9  C   UNL     1      22.739   2.330  49.463  1.00  0.00    +0.032 A 
ATOM     10  N   UNL     1      23.933   2.304  51.315  1.00  0.00    -0.354 N 
ATOM     11  C   UNL     1      22.166   1.369  50.345  1.00  0.00    -0.025 A 
ATOM     12  C   UNL     1      22.937   1.371  51.498  1.00  0.00    +0.049 A 
ATOM     13  H   UNL     1      24.668   2.486  51.983  1.00  0.00    +0.167 HD
ATOM     14  C   UNL     1      20.963   0.541  50.063  1.00  0.00    +0.047 C 
BRANCH  12  15
ATOM     15  C   UNL     1      22.841   0.584  52.725  1.00  0.00    -0.002 A 
ATOM     16  C   UNL     1      23.957  -0.105  53.218  1.00  0.00    +0.010 A 
ATOM     17  C   UNL     1      21.630   0.501  53.424  1.00  0.00    +0.010 A 
ATOM     18  C   UNL     1      23.862  -0.863  54.387  1.00  0.00    +0.001 A 
ATOM     19  C   UNL     1      21.535  -0.259  54.591  1.00  0.00    +0.001 A 
ATOM     20  C   UNL     1      22.652  -0.941  55.073  1.00  0.00    +0.000 A 
ENDBRANCH  12  15
ENDBRANCH   6   8
TORSDOF 2
ENDMDL
