MODEL 1
REMARK VINA RESULT:    -9.660      0.000      0.000
REMARK INTER + INTRA:         -16.085
REMARK INTER:                 -14.460
REMARK INTRA:                  -1.625
REMARK UNBOUND:                -1.625
REMARK SMILES Oc1ccc(N(CC/N=N/Nc2ccc3ncnc(-c4cccc(Cl)c4)c3c2)c2ccccn2)cc1
REMARK SMILES IDX 8 1 7 2 6 3 5 4 2 5 3 6 36 7 4 8 35 9 1 10 29 12 30 13 34 14
REMARK SMILES IDX 31 15 33 16 32 17 9 18 10 19 11 20 12 22 13 23 28 24 14 25
REMARK SMILES IDX 27 26 15 27 19 28 16 29 18 30 17 31 20 32 21 33 26 34 22 35
REMARK SMILES IDX 24 36 23 37 25 38
REMARK H PARENT 1 11 11 21
ROOT
ATOM      1  C   UNL     1      26.700   1.439  51.852  1.00  0.00    +0.191 C 
ENDROOT
BRANCH   1   2
ATOM      2  C   UNL     1      26.160   1.517  53.287  1.00  0.00    +0.150 C 
BRANCH   2   3
ATOM      3  N   UNL     1      26.123   0.194  53.953  1.00  0.00    -0.324 N 
BRANCH   3   4
ATOM      4  C   UNL     1      24.807  -0.293  54.155  1.00  0.00    +0.043 A 
ATOM      5  C   UNL     1      22.211  -1.271  54.585  1.00  0.00    +0.115 A 
ATOM      6  C   UNL     1      22.494  -0.571  53.419  1.00  0.00    +0.048 A 
ATOM      7  C   UNL     1      23.195  -1.489  55.539  1.00  0.00    +0.048 A 
ATOM      8  C   UNL     1      23.789  -0.084  53.209  1.00  0.00    +0.030 A 
ATOM      9  C   UNL     1      24.486  -1.001  55.325  1.00  0.00    +0.030 A 
BRANCH   5  10
ATOM     10  O   UNL     1      20.965  -1.766  54.832  1.00  0.00    -0.508 OA
ATOM     11  H   UNL     1      20.931  -2.687  54.526  1.00  0.00    +0.293 HD
ENDBRANCH   5  10
ENDBRANCH   3   4
BRANCH   3  12
ATOM     12  C   UNL     1      27.277  -0.604  53.735  1.00  0.00    +0.132 A 
ATOM     13  C   UNL     1      28.531  -0.129  54.136  1.00  0.00    +0.047 A 
ATOM     14  N   UNL     1      27.172  -1.797  53.101  1.00  0.00    -0.239 NA
ATOM     15  C   UNL     1      29.676  -0.892  53.914  1.00  0.00    +0.005 A 
ATOM     16  C   UNL     1      28.295  -2.523  52.896  1.00  0.00    +0.113 A 
ATOM     17  C   UNL     1      29.557  -2.120  53.285  1.00  0.00    +0.020 A 
ENDBRANCH   3  12
ENDBRANCH   2   3
ENDBRANCH   1   2
BRANCH   1  18
ATOM     18  N   UNL     1      26.931   2.800  51.335  1.00  0.00    -0.169 NA
ATOM     19  N   UNL     1      26.811   2.860  50.098  1.00  0.00    -0.075 NA
BRANCH  19  20
ATOM     20  N   UNL     1      27.059   4.142  49.775  1.00  0.00    -0.260 N 
ATOM     21  H   UNL     1      27.965   4.296  49.345  1.00  0.00    +0.192 HD
BRANCH  20  22
ATOM     22  C   UNL     1      26.008   4.939  49.294  1.00  0.00    +0.059 A 
ATOM     23  C   UNL     1      26.215   6.180  48.691  1.00  0.00    +0.030 A 
ATOM     24  C   UNL     1      24.703   4.434  49.301  1.00  0.00    +0.040 A 
ATOM     25  C   UNL     1      25.143   6.912  48.165  1.00  0.00    +0.031 A 
ATOM     26  C   UNL     1      23.613   5.172  48.765  1.00  0.00    +0.029 A 
ATOM     27  C   UNL     1      23.842   6.431  48.196  1.00  0.00    +0.074 A 
ATOM     28  C   UNL     1      22.273   4.754  48.747  1.00  0.00    +0.082 A 
ATOM     29  N   UNL     1      22.865   7.183  47.678  1.00  0.00    -0.236 NA
ATOM     30  N   UNL     1      21.271   5.499  48.234  1.00  0.00    -0.236 NA
ATOM     31  C   UNL     1      21.625   6.681  47.722  1.00  0.00    +0.223 A 
BRANCH  28  32
ATOM     32  C   UNL     1      21.829   3.463  49.291  1.00  0.00    +0.002 A 
ATOM     33  C   UNL     1      21.941   2.285  48.532  1.00  0.00    +0.010 A 
ATOM     34  C   UNL     1      21.277   3.384  50.579  1.00  0.00    +0.030 A 
ATOM     35  C   UNL     1      21.528   1.057  49.053  1.00  0.00    +0.002 A 
ATOM     36  C   UNL     1      20.868   2.154  51.093  1.00  0.00    +0.041 A 
ATOM     37  C   UNL     1      20.993   0.991  50.337  1.00  0.00    +0.020 A 
ATOM     38 Cl   UNL     1      20.206   2.073  52.681  1.00  0.00    -0.084 Cl
ENDBRANCH  28  32
ENDBRANCH  20  22
ENDBRANCH  19  20
ENDBRANCH   1  18
TORSDOF 9
ENDMDL
MODEL 2
REMARK VINA RESULT:    -8.937      1.780      3.638
REMARK INTER + INTRA:         -15.004
REMARK INTER:                 -13.489
REMARK INTRA:                  -1.515
REMARK UNBOUND:                -1.625
REMARK SMILES Oc1ccc(N(CC/N=N/Nc2ccc3ncnc(-c4cccc(Cl)c4)c3c2)c2ccccn2)cc1
REMARK SMILES IDX 8 1 7 2 6 3 5 4 2 5 3 6 36 7 4 8 35 9 1 10 29 12 30 13 34 14
REMARK SMILES IDX 31 15 33 16 32 17 9 18 10 19 11 20 12 22 13 23 28 24 14 25
REMARK SMILES IDX 27 26 15 27 19 28 16 29 18 30 17 31 20 32 21 33 26 34 22 35
REMARK SMILES IDX 24 36 23 37 25 38
REMARK H PARENT 1 11 11 21
ROOT
ATOM      1  C   UNL     1      26.713   1.549  51.288  1.00  0.00    +0.191 C 
ENDROOT
BRANCH   1   2
ATOM      2  C   UNL     1      25.587   1.313  52.305  1.00  0.00    +0.150 C 
BRANCH   2   3
ATOM      3  N   UNL     1      25.651  -0.033  52.921  1.00  0.00    -0.324 N 
BRANCH   3   4
ATOM      4  C   UNL     1      26.969  -0.430  53.261  1.00  0.00    +0.043 A 
ATOM      5  C   UNL     1      29.576  -1.244  53.915  1.00  0.00    +0.115 A 
ATOM      6  C   UNL     1      29.094  -0.035  54.401  1.00  0.00    +0.048 A 
ATOM      7  C   UNL     1      28.785  -2.050  53.107  1.00  0.00    +0.048 A 
ATOM      8  C   UNL     1      27.795   0.368  54.072  1.00  0.00    +0.030 A 
ATOM      9  C   UNL     1      27.489  -1.643  52.782  1.00  0.00    +0.030 A 
BRANCH   5  10
ATOM     10  O   UNL     1      30.834  -1.678  54.210  1.00  0.00    -0.508 OA
ATOM     11  H   UNL     1      31.234  -2.039  53.403  1.00  0.00    +0.293 HD
ENDBRANCH   5  10
ENDBRANCH   3   4
BRANCH   3  12
ATOM     12  C   UNL     1      24.469  -0.422  53.603  1.00  0.00    +0.132 A 
ATOM     13  C   UNL     1      23.222  -0.184  53.013  1.00  0.00    +0.047 A 
ATOM     14  N   UNL     1      24.543  -0.978  54.837  1.00  0.00    -0.239 NA
ATOM     15  C   UNL     1      22.050  -0.544  53.676  1.00  0.00    +0.005 A 
ATOM     16  C   UNL     1      23.394  -1.321  55.463  1.00  0.00    +0.113 A 
ATOM     17  C   UNL     1      22.135  -1.131  54.927  1.00  0.00    +0.020 A 
ENDBRANCH   3  12
ENDBRANCH   2   3
ENDBRANCH   1   2
BRANCH   1  18
ATOM     18  N   UNL     1      26.819   2.989  50.992  1.00  0.00    -0.169 NA
ATOM     19  N   UNL     1      26.850   3.217  49.769  1.00  0.00    -0.075 NA
BRANCH  19  20
ATOM     20  N   UNL     1      26.958   4.553  49.655  1.00  0.00    -0.260 N 
ATOM     21  H   UNL     1      27.887   4.876  49.403  1.00  0.00    +0.192 HD
BRANCH  20  22
ATOM     22  C   UNL     1      25.887   5.280  49.112  1.00  0.00    +0.059 A 
ATOM     23  C   UNL     1      26.051   6.522  48.498  1.00  0.00    +0.030 A 
ATOM     24  C   UNL     1      24.615   4.698  49.065  1.00  0.00    +0.040 A 
ATOM     25  C   UNL     1      24.964   7.182  47.910  1.00  0.00    +0.031 A 
ATOM     26  C   UNL     1      23.511   5.363  48.465  1.00  0.00    +0.029 A 
ATOM     27  C   UNL     1      23.694   6.625  47.887  1.00  0.00    +0.074 A 
ATOM     28  C   UNL     1      22.201   4.866  48.391  1.00  0.00    +0.082 A 
ATOM     29  N   UNL     1      22.701   7.311  47.311  1.00  0.00    -0.236 NA
ATOM     30  N   UNL     1      21.182   5.543  47.818  1.00  0.00    -0.236 NA
ATOM     31  C   UNL     1      21.491   6.737  47.304  1.00  0.00    +0.223 A 
BRANCH  28  32
ATOM     32  C   UNL     1      21.807   3.559  48.934  1.00  0.00    +0.002 A 
ATOM     33  C   UNL     1      22.015   2.380  48.196  1.00  0.00    +0.010 A 
ATOM     34  C   UNL     1      21.208   3.463  50.199  1.00  0.00    +0.030 A 
ATOM     35  C   UNL     1      21.650   1.137  48.717  1.00  0.00    +0.002 A 
ATOM     36  C   UNL     1      20.847   2.219  50.714  1.00  0.00    +0.041 A 
ATOM     37  C   UNL     1      21.067   1.056  49.980  1.00  0.00    +0.020 A 
ATOM     38 Cl   UNL     1      20.127   2.119  52.275  1.00  0.00    -0.084 Cl
ENDBRANCH  28  32
ENDBRANCH  20  22
ENDBRANCH  19  20
ENDBRANCH   1  18
TORSDOF 9
ENDMDL
MODEL 3
REMARK VINA RESULT:    -8.901      3.174      6.042
REMARK INTER + INTRA:         -14.950
REMARK INTER:                 -12.848
REMARK INTRA:                  -2.102
REMARK UNBOUND:                -1.625
REMARK SMILES Oc1ccc(N(CC/N=N/Nc2ccc3ncnc(-c4cccc(Cl)c4)c3c2)c2ccccn2)cc1
REMARK SMILES IDX 8 1 7 2 6 3 5 4 2 5 3 6 36 7 4 8 35 9 1 10 29 12 30 13 34 14
REMARK SMILES IDX 31 15 33 16 32 17 9 18 10 19 11 20 12 22 13 23 28 24 14 25
REMARK SMILES IDX 27 26 15 27 19 28 16 29 18 30 17 31 20 32 21 33 26 34 22 35
REMARK SMILES IDX 24 36 23 37 25 38
REMARK H PARENT 1 11 11 21
ROOT
ATOM      1  C   UNL     1      24.812  -0.735  54.490  1.00  0.00    +0.191 C 
ENDROOT
BRANCH   1   2
ATOM      2  C   UNL     1      24.905  -0.771  52.958  1.00  0.00    +0.150 C 
BRANCH   2   3
ATOM      3  N   UNL     1      26.036   0.034  52.438  1.00  0.00    -0.324 N 
BRANCH   3   4
ATOM      4  C   UNL     1      25.662   1.354  52.079  1.00  0.00    +0.043 A 
ATOM      5  C   UNL     1      24.948   3.967  51.343  1.00  0.00    +0.115 A 
ATOM      6  C   UNL     1      24.215   3.307  52.321  1.00  0.00    +0.048 A 
ATOM      7  C   UNL     1      26.024   3.348  50.724  1.00  0.00    +0.048 A 
ATOM      8  C   UNL     1      24.573   2.004  52.684  1.00  0.00    +0.030 A 
ATOM      9  C   UNL     1      26.378   2.047  51.090  1.00  0.00    +0.030 A 
BRANCH   5  10
ATOM     10  O   UNL     1      24.637   5.238  50.959  1.00  0.00    -0.508 OA
ATOM     11  H   UNL     1      23.757   5.459  51.304  1.00  0.00    +0.293 HD
ENDBRANCH   5  10
ENDBRANCH   3   4
BRANCH   3  12
ATOM     12  C   UNL     1      27.309  -0.362  52.923  1.00  0.00    +0.132 A 
ATOM     13  C   UNL     1      27.767  -1.663  52.680  1.00  0.00    +0.047 A 
ATOM     14  N   UNL     1      28.058   0.497  53.656  1.00  0.00    -0.239 NA
ATOM     15  C   UNL     1      29.007  -2.074  53.164  1.00  0.00    +0.005 A 
ATOM     16  C   UNL     1      29.260   0.079  54.115  1.00  0.00    +0.113 A 
ATOM     17  C   UNL     1      29.776  -1.183  53.893  1.00  0.00    +0.020 A 
ENDBRANCH   3  12
ENDBRANCH   2   3
ENDBRANCH   1   2
BRANCH   1  18
ATOM     18  N   UNL     1      23.413  -0.947  54.906  1.00  0.00    -0.169 NA
ATOM     19  N   UNL     1      22.604  -0.587  54.031  1.00  0.00    -0.075 NA
BRANCH  19  20
ATOM     20  N   UNL     1      21.386  -0.826  54.550  1.00  0.00    -0.260 N 
ATOM     21  H   UNL     1      21.239  -0.426  55.470  1.00  0.00    +0.192 HD
BRANCH  20  22
ATOM     22  C   UNL     1      20.271  -0.830  53.697  1.00  0.00    +0.059 A 
ATOM     23  C   UNL     1      19.099  -1.529  53.988  1.00  0.00    +0.030 A 
ATOM     24  C   UNL     1      20.269  -0.010  52.563  1.00  0.00    +0.040 A 
ATOM     25  C   UNL     1      17.986  -1.451  53.141  1.00  0.00    +0.031 A 
ATOM     26  C   UNL     1      19.140   0.074  51.703  1.00  0.00    +0.029 A 
ATOM     27  C   UNL     1      17.988  -0.665  51.999  1.00  0.00    +0.074 A 
ATOM     28  C   UNL     1      19.057   0.852  50.538  1.00  0.00    +0.082 A 
ATOM     29  N   UNL     1      16.892  -0.639  51.233  1.00  0.00    -0.236 NA
ATOM     30  N   UNL     1      17.963   0.890  49.748  1.00  0.00    -0.236 NA
ATOM     31  C   UNL     1      16.931   0.138  50.143  1.00  0.00    +0.223 A 
BRANCH  28  32
ATOM     32  C   UNL     1      20.157   1.701  50.060  1.00  0.00    +0.002 A 
ATOM     33  C   UNL     1      21.192   1.164  49.275  1.00  0.00    +0.010 A 
ATOM     34  C   UNL     1      20.200   3.065  50.386  1.00  0.00    +0.030 A 
ATOM     35  C   UNL     1      22.233   1.972  48.812  1.00  0.00    +0.002 A 
ATOM     36  C   UNL     1      21.240   3.867  49.921  1.00  0.00    +0.041 A 
ATOM     37  C   UNL     1      22.255   3.328  49.133  1.00  0.00    +0.020 A 
ATOM     38 Cl   UNL     1      21.268   5.543  50.318  1.00  0.00    -0.084 Cl
ENDBRANCH  28  32
ENDBRANCH  20  22
ENDBRANCH  19  20
ENDBRANCH   1  18
TORSDOF 9
ENDMDL
MODEL 4
REMARK VINA RESULT:    -8.883      3.387      8.029
REMARK INTER + INTRA:         -14.923
REMARK INTER:                 -12.349
REMARK INTRA:                  -2.574
REMARK UNBOUND:                -1.625
REMARK SMILES Oc1ccc(N(CC/N=N/Nc2ccc3ncnc(-c4cccc(Cl)c4)c3c2)c2ccccn2)cc1
REMARK SMILES IDX 8 1 7 2 6 3 5 4 2 5 3 6 36 7 4 8 35 9 1 10 29 12 30 13 34 14
REMARK SMILES IDX 31 15 33 16 32 17 9 18 10 19 11 20 12 22 13 23 28 24 14 25
REMARK SMILES IDX 27 26 15 27 19 28 16 29 18 30 17 31 20 32 21 33 26 34 22 35
REMARK SMILES IDX 24 36 23 37 25 38
REMARK H PARENT 1 11 11 21
ROOT
ATOM      1  C   UNL     1      22.157   4.224  46.857  1.00  0.00    +0.191 C 
ENDROOT
BRANCH   1   2
ATOM      2  C   UNL     1      22.680   5.315  47.803  1.00  0.00    +0.150 C 
BRANCH   2   3
ATOM      3  N   UNL     1      23.420   4.757  48.960  1.00  0.00    -0.324 N 
BRANCH   3   4
ATOM      4  C   UNL     1      24.809   5.039  48.923  1.00  0.00    +0.043 A 
ATOM      5  C   UNL     1      27.552   5.632  48.841  1.00  0.00    +0.115 A 
ATOM      6  C   UNL     1      27.139   4.340  49.144  1.00  0.00    +0.048 A 
ATOM      7  C   UNL     1      26.624   6.631  48.584  1.00  0.00    +0.048 A 
ATOM      8  C   UNL     1      25.771   4.049  49.185  1.00  0.00    +0.030 A 
ATOM      9  C   UNL     1      25.259   6.336  48.626  1.00  0.00    +0.030 A 
BRANCH   5  10
ATOM     10  O   UNL     1      28.874   5.961  48.788  1.00  0.00    -0.508 OA
ATOM     11  H   UNL     1      29.384   5.163  48.576  1.00  0.00    +0.293 HD
ENDBRANCH   5  10
ENDBRANCH   3   4
BRANCH   3  12
ATOM     12  C   UNL     1      22.638   4.601  50.134  1.00  0.00    +0.132 A 
ATOM     13  C   UNL     1      23.259   4.228  51.332  1.00  0.00    +0.047 A 
ATOM     14  N   UNL     1      21.294   4.767  50.087  1.00  0.00    -0.239 NA
ATOM     15  C   UNL     1      22.504   4.053  52.491  1.00  0.00    +0.005 A 
ATOM     16  C   UNL     1      20.580   4.594  51.223  1.00  0.00    +0.113 A 
ATOM     17  C   UNL     1      21.134   4.245  52.439  1.00  0.00    +0.020 A 
ENDBRANCH   3  12
ENDBRANCH   2   3
ENDBRANCH   1   2
BRANCH   1  18
ATOM     18  N   UNL     1      22.305   2.903  47.495  1.00  0.00    -0.169 NA
ATOM     19  N   UNL     1      21.212   2.432  47.860  1.00  0.00    -0.075 NA
BRANCH  19  20
ATOM     20  N   UNL     1      21.503   1.247  48.427  1.00  0.00    -0.260 N 
ATOM     21  H   UNL     1      22.381   0.842  48.119  1.00  0.00    +0.192 HD
BRANCH  20  22
ATOM     22  C   UNL     1      21.167   1.036  49.773  1.00  0.00    +0.059 A 
ATOM     23  C   UNL     1      19.847   0.936  50.216  1.00  0.00    +0.030 A 
ATOM     24  C   UNL     1      22.182   0.791  50.704  1.00  0.00    +0.040 A 
ATOM     25  C   UNL     1      19.559   0.657  51.558  1.00  0.00    +0.031 A 
ATOM     26  C   UNL     1      21.893   0.505  52.066  1.00  0.00    +0.029 A 
ATOM     27  C   UNL     1      20.561   0.444  52.494  1.00  0.00    +0.074 A 
ATOM     28  C   UNL     1      22.844   0.267  53.071  1.00  0.00    +0.082 A 
ATOM     29  N   UNL     1      20.215   0.185  53.760  1.00  0.00    -0.236 NA
ATOM     30  N   UNL     1      22.518   0.008  54.355  1.00  0.00    -0.236 NA
ATOM     31  C   UNL     1      21.210  -0.020  54.631  1.00  0.00    +0.223 A 
BRANCH  28  32
ATOM     32  C   UNL     1      24.292   0.281  52.823  1.00  0.00    +0.002 A 
ATOM     33  C   UNL     1      24.960   1.481  52.525  1.00  0.00    +0.010 A 
ATOM     34  C   UNL     1      25.037  -0.907  52.874  1.00  0.00    +0.030 A 
ATOM     35  C   UNL     1      26.338   1.497  52.299  1.00  0.00    +0.002 A 
ATOM     36  C   UNL     1      26.412  -0.886  52.650  1.00  0.00    +0.041 A 
ATOM     37  C   UNL     1      27.067   0.311  52.365  1.00  0.00    +0.020 A 
ATOM     38 Cl   UNL     1      27.312  -2.352  52.731  1.00  0.00    -0.084 Cl
ENDBRANCH  28  32
ENDBRANCH  20  22
ENDBRANCH  19  20
ENDBRANCH   1  18
TORSDOF 9
ENDMDL
MODEL 5
REMARK VINA RESULT:    -8.774      3.467      6.678
REMARK INTER + INTRA:         -14.758
REMARK INTER:                 -12.711
REMARK INTRA:                  -2.048
REMARK UNBOUND:                -1.625
REMARK SMILES Oc1ccc(N(CC/N=N/Nc2ccc3ncnc(-c4cccc(Cl)c4)c3c2)c2ccccn2)cc1
REMARK SMILES IDX 8 1 7 2 6 3 5 4 2 5 3 6 36 7 4 8 35 9 1 10 29 12 30 13 34 14
REMARK SMILES IDX 31 15 33 16 32 17 9 18 10 19 11 20 12 22 13 23 28 24 14 25
REMARK SMILES IDX 27 26 15 27 19 28 16 29 18 30 17 31 20 32 21 33 26 34 22 35
REMARK SMILES IDX 24 36 23 37 25 38
REMARK H PARENT 1 11 11 21
ROOT
ATOM      1  C   UNL     1      23.987  -0.885  54.583  1.00  0.00    +0.191 C 
ENDROOT
BRANCH   1   2
ATOM      2  C   UNL     1      24.102  -0.117  53.259  1.00  0.00    +0.150 C 
BRANCH   2   3
ATOM      3  N   UNL     1      25.211   0.866  53.265  1.00  0.00    -0.324 N 
BRANCH   3   4
ATOM      4  C   UNL     1      26.487   0.266  53.420  1.00  0.00    +0.043 A 
ATOM      5  C   UNL     1      29.021  -0.895  53.750  1.00  0.00    +0.115 A 
ATOM      6  C   UNL     1      28.121  -1.458  52.854  1.00  0.00    +0.048 A 
ATOM      7  C   UNL     1      28.680   0.231  54.486  1.00  0.00    +0.048 A 
ATOM      8  C   UNL     1      26.859  -0.877  52.693  1.00  0.00    +0.030 A 
ATOM      9  C   UNL     1      27.417   0.808  54.321  1.00  0.00    +0.030 A 
BRANCH   5  10
ATOM     10  O   UNL     1      30.263  -1.426  53.939  1.00  0.00    -0.508 OA
ATOM     11  H   UNL     1      30.924  -0.739  53.754  1.00  0.00    +0.293 HD
ENDBRANCH   5  10
ENDBRANCH   3   4
BRANCH   3  12
ATOM     12  C   UNL     1      24.939   2.060  52.549  1.00  0.00    +0.132 A 
ATOM     13  C   UNL     1      25.656   2.343  51.380  1.00  0.00    +0.047 A 
ATOM     14  N   UNL     1      24.024   2.943  53.016  1.00  0.00    -0.239 NA
ATOM     15  C   UNL     1      25.414   3.520  50.674  1.00  0.00    +0.005 A 
ATOM     16  C   UNL     1      23.802   4.079  52.315  1.00  0.00    +0.113 A 
ATOM     17  C   UNL     1      24.462   4.406  51.146  1.00  0.00    +0.020 A 
ENDBRANCH   3  12
ENDBRANCH   2   3
ENDBRANCH   1   2
BRANCH   1  18
ATOM     18  N   UNL     1      22.569  -1.174  54.866  1.00  0.00    -0.169 NA
ATOM     19  N   UNL     1      21.806  -0.620  54.054  1.00  0.00    -0.075 NA
BRANCH  19  20
ATOM     20  N   UNL     1      20.563  -0.960  54.441  1.00  0.00    -0.260 N 
ATOM     21  H   UNL     1      20.327  -0.674  55.385  1.00  0.00    +0.192 HD
BRANCH  20  22
ATOM     22  C   UNL     1      19.519  -0.905  53.504  1.00  0.00    +0.059 A 
ATOM     23  C   UNL     1      18.288  -1.530  53.706  1.00  0.00    +0.030 A 
ATOM     24  C   UNL     1      19.654  -0.095  52.371  1.00  0.00    +0.040 A 
ATOM     25  C   UNL     1      17.250  -1.393  52.776  1.00  0.00    +0.031 A 
ATOM     26  C   UNL     1      18.602   0.049  51.426  1.00  0.00    +0.029 A 
ATOM     27  C   UNL     1      17.388  -0.617  51.634  1.00  0.00    +0.074 A 
ATOM     28  C   UNL     1      18.656   0.822  50.255  1.00  0.00    +0.082 A 
ATOM     29  N   UNL     1      16.357  -0.531  50.786  1.00  0.00    -0.236 NA
ATOM     30  N   UNL     1      17.630   0.918  49.382  1.00  0.00    -0.236 NA
ATOM     31  C   UNL     1      16.527   0.232  49.699  1.00  0.00    +0.223 A 
BRANCH  28  32
ATOM     32  C   UNL     1      19.838   1.599  49.861  1.00  0.00    +0.002 A 
ATOM     33  C   UNL     1      20.921   0.983  49.210  1.00  0.00    +0.010 A 
ATOM     34  C   UNL     1      19.912   2.974  50.134  1.00  0.00    +0.030 A 
ATOM     35  C   UNL     1      22.041   1.724  48.826  1.00  0.00    +0.002 A 
ATOM     36  C   UNL     1      21.032   3.708  49.747  1.00  0.00    +0.041 A 
ATOM     37  C   UNL     1      22.096   3.090  49.093  1.00  0.00    +0.020 A 
ATOM     38 Cl   UNL     1      21.099   5.397  50.077  1.00  0.00    -0.084 Cl
ENDBRANCH  28  32
ENDBRANCH  20  22
ENDBRANCH  19  20
ENDBRANCH   1  18
TORSDOF 9
ENDMDL
MODEL 6
REMARK VINA RESULT:    -8.620      4.096      9.179
REMARK INTER + INTRA:         -14.528
REMARK INTER:                 -11.622
REMARK INTRA:                  -2.906
REMARK UNBOUND:                -1.625
REMARK SMILES Oc1ccc(N(CC/N=N/Nc2ccc3ncnc(-c4cccc(Cl)c4)c3c2)c2ccccn2)cc1
REMARK SMILES IDX 8 1 7 2 6 3 5 4 2 5 3 6 36 7 4 8 35 9 1 10 29 12 30 13 34 14
REMARK SMILES IDX 31 15 33 16 32 17 9 18 10 19 11 20 12 22 13 23 28 24 14 25
REMARK SMILES IDX 27 26 15 27 19 28 16 29 18 30 17 31 20 32 21 33 26 34 22 35
REMARK SMILES IDX 24 36 23 37 25 38
REMARK H PARENT 1 11 11 21
ROOT
ATOM      1  C   UNL     1      17.314   0.410  50.575  1.00  0.00    +0.191 C 
ENDROOT
BRANCH   1   2
ATOM      2  C   UNL     1      18.001   1.627  49.939  1.00  0.00    +0.150 C 
BRANCH   2   3
ATOM      3  N   UNL     1      17.768   2.875  50.704  1.00  0.00    -0.324 N 
BRANCH   3   4
ATOM      4  C   UNL     1      18.960   3.595  50.973  1.00  0.00    +0.043 A 
ATOM      5  C   UNL     1      21.326   4.999  51.534  1.00  0.00    +0.115 A 
ATOM      6  C   UNL     1      20.537   5.387  50.458  1.00  0.00    +0.048 A 
ATOM      7  C   UNL     1      20.958   3.923  52.331  1.00  0.00    +0.048 A 
ATOM      8  C   UNL     1      19.360   4.684  50.181  1.00  0.00    +0.030 A 
ATOM      9  C   UNL     1      19.781   3.225  52.050  1.00  0.00    +0.030 A 
BRANCH   5  10
ATOM     10  O   UNL     1      22.480   5.654  51.843  1.00  0.00    -0.508 OA
ATOM     11  H   UNL     1      22.769   6.157  51.064  1.00  0.00    +0.293 HD
ENDBRANCH   5  10
ENDBRANCH   3   4
BRANCH   3  12
ATOM     12  C   UNL     1      16.481   3.445  50.518  1.00  0.00    +0.132 A 
ATOM     13  C   UNL     1      15.723   3.816  51.634  1.00  0.00    +0.047 A 
ATOM     14  N   UNL     1      15.971   3.586  49.270  1.00  0.00    -0.239 NA
ATOM     15  C   UNL     1      14.451   4.361  51.470  1.00  0.00    +0.005 A 
ATOM     16  C   UNL     1      14.735   4.119  49.133  1.00  0.00    +0.113 A 
ATOM     17  C   UNL     1      13.945   4.522  50.192  1.00  0.00    +0.020 A 
ENDBRANCH   3  12
ENDBRANCH   2   3
ENDBRANCH   1   2
BRANCH   1  18
ATOM     18  N   UNL     1      17.869   0.175  51.920  1.00  0.00    -0.169 NA
ATOM     19  N   UNL     1      18.948  -0.443  51.881  1.00  0.00    -0.075 NA
BRANCH  19  20
ATOM     20  N   UNL     1      19.323  -0.594  53.164  1.00  0.00    -0.260 N 
ATOM     21  H   UNL     1      18.769  -1.267  53.684  1.00  0.00    +0.192 HD
BRANCH  20  22
ATOM     22  C   UNL     1      20.688  -0.541  53.487  1.00  0.00    +0.059 A 
ATOM     23  C   UNL     1      21.244  -1.269  54.540  1.00  0.00    +0.030 A 
ATOM     24  C   UNL     1      21.563   0.168  52.657  1.00  0.00    +0.040 A 
ATOM     25  C   UNL     1      22.623  -1.239  54.784  1.00  0.00    +0.031 A 
ATOM     26  C   UNL     1      22.963   0.198  52.900  1.00  0.00    +0.029 A 
ATOM     27  C   UNL     1      23.494  -0.513  53.984  1.00  0.00    +0.074 A 
ATOM     28  C   UNL     1      23.911   0.896  52.135  1.00  0.00    +0.082 A 
ATOM     29  N   UNL     1      24.799  -0.526  54.276  1.00  0.00    -0.236 NA
ATOM     30  N   UNL     1      25.232   0.900  52.414  1.00  0.00    -0.236 NA
ATOM     31  C   UNL     1      25.606   0.182  53.477  1.00  0.00    +0.223 A 
BRANCH  28  32
ATOM     32  C   UNL     1      23.556   1.696  50.955  1.00  0.00    +0.002 A 
ATOM     33  C   UNL     1      22.433   1.370  50.176  1.00  0.00    +0.010 A 
ATOM     34  C   UNL     1      24.337   2.800  50.580  1.00  0.00    +0.030 A 
ATOM     35  C   UNL     1      22.089   2.138  49.060  1.00  0.00    +0.002 A 
ATOM     36  C   UNL     1      23.989   3.562  49.467  1.00  0.00    +0.041 A 
ATOM     37  C   UNL     1      22.868   3.238  48.706  1.00  0.00    +0.020 A 
ATOM     38 Cl   UNL     1      24.951   4.922  49.030  1.00  0.00    -0.084 Cl
ENDBRANCH  28  32
ENDBRANCH  20  22
ENDBRANCH  19  20
ENDBRANCH   1  18
TORSDOF 9
ENDMDL
MODEL 7
REMARK VINA RESULT:    -8.447      3.328      8.585
REMARK INTER + INTRA:         -14.269
REMARK INTER:                 -12.315
REMARK INTRA:                  -1.954
REMARK UNBOUND:                -1.625
REMARK SMILES Oc1ccc(N(CC/N=N/Nc2ccc3ncnc(-c4cccc(Cl)c4)c3c2)c2ccccn2)cc1
REMARK SMILES IDX 8 1 7 2 6 3 5 4 2 5 3 6 36 7 4 8 35 9 1 10 29 12 30 13 34 14
REMARK SMILES IDX 31 15 33 16 32 17 9 18 10 19 11 20 12 22 13 23 28 24 14 25
REMARK SMILES IDX 27 26 15 27 19 28 16 29 18 30 17 31 20 32 21 33 26 34 22 35
REMARK SMILES IDX 24 36 23 37 25 38
REMARK H PARENT 1 11 11 21
ROOT
ATOM      1  C   UNL     1      21.354   4.137  46.361  1.00  0.00    +0.191 C 
ENDROOT
BRANCH   1   2
ATOM      2  C   UNL     1      22.315   5.272  46.743  1.00  0.00    +0.150 C 
BRANCH   2   3
ATOM      3  N   UNL     1      22.449   5.434  48.210  1.00  0.00    -0.324 N 
BRANCH   3   4
ATOM      4  C   UNL     1      23.707   5.009  48.706  1.00  0.00    +0.043 A 
ATOM      5  C   UNL     1      26.214   4.197  49.675  1.00  0.00    +0.115 A 
ATOM      6  C   UNL     1      25.110   3.373  49.856  1.00  0.00    +0.048 A 
ATOM      7  C   UNL     1      26.090   5.417  49.025  1.00  0.00    +0.048 A 
ATOM      8  C   UNL     1      23.863   3.781  49.373  1.00  0.00    +0.030 A 
ATOM      9  C   UNL     1      24.842   5.820  48.544  1.00  0.00    +0.030 A 
BRANCH   5  10
ATOM     10  O   UNL     1      27.450   3.840  50.127  1.00  0.00    -0.508 OA
ATOM     11  H   UNL     1      27.378   3.592  51.063  1.00  0.00    +0.293 HD
ENDBRANCH   5  10
ENDBRANCH   3   4
BRANCH   3  12
ATOM     12  C   UNL     1      21.649   6.469  48.761  1.00  0.00    +0.132 A 
ATOM     13  C   UNL     1      21.865   6.879  50.082  1.00  0.00    +0.047 A 
ATOM     14  N   UNL     1      20.655   7.027  48.028  1.00  0.00    -0.239 NA
ATOM     15  C   UNL     1      21.077   7.883  50.643  1.00  0.00    +0.005 A 
ATOM     16  C   UNL     1      19.903   8.001  48.591  1.00  0.00    +0.113 A 
ATOM     17  C   UNL     1      20.077   8.462  49.881  1.00  0.00    +0.020 A 
ENDBRANCH   3  12
ENDBRANCH   2   3
ENDBRANCH   1   2
BRANCH   1  18
ATOM     18  N   UNL     1      21.750   2.898  47.055  1.00  0.00    -0.169 NA
ATOM     19  N   UNL     1      20.900   2.534  47.888  1.00  0.00    -0.075 NA
BRANCH  19  20
ATOM     20  N   UNL     1      21.397   1.414  48.443  1.00  0.00    -0.260 N 
ATOM     21  H   UNL     1      22.373   1.241  48.228  1.00  0.00    +0.192 HD
BRANCH  20  22
ATOM     22  C   UNL     1      20.977   1.047  49.731  1.00  0.00    +0.059 A 
ATOM     23  C   UNL     1      19.653   0.718  50.029  1.00  0.00    +0.030 A 
ATOM     24  C   UNL     1      21.928   0.881  50.743  1.00  0.00    +0.040 A 
ATOM     25  C   UNL     1      19.291   0.292  51.313  1.00  0.00    +0.031 A 
ATOM     26  C   UNL     1      21.564   0.445  52.046  1.00  0.00    +0.029 A 
ATOM     27  C   UNL     1      20.224   0.155  52.331  1.00  0.00    +0.074 A 
ATOM     28  C   UNL     1      22.445   0.270  53.125  1.00  0.00    +0.082 A 
ATOM     29  N   UNL     1      19.808  -0.254  53.534  1.00  0.00    -0.236 NA
ATOM     30  N   UNL     1      22.046  -0.137  54.350  1.00  0.00    -0.236 NA
ATOM     31  C   UNL     1      20.740  -0.380  54.487  1.00  0.00    +0.223 A 
BRANCH  28  32
ATOM     32  C   UNL     1      23.890   0.518  53.029  1.00  0.00    +0.002 A 
ATOM     33  C   UNL     1      24.400   1.827  53.073  1.00  0.00    +0.010 A 
ATOM     34  C   UNL     1      24.789  -0.550  52.883  1.00  0.00    +0.030 A 
ATOM     35  C   UNL     1      25.775   2.062  52.992  1.00  0.00    +0.002 A 
ATOM     36  C   UNL     1      26.159  -0.309  52.803  1.00  0.00    +0.041 A 
ATOM     37  C   UNL     1      26.657   0.991  52.859  1.00  0.00    +0.020 A 
ATOM     38 Cl   UNL     1      27.249  -1.633  52.640  1.00  0.00    -0.084 Cl
ENDBRANCH  28  32
ENDBRANCH  20  22
ENDBRANCH  19  20
ENDBRANCH   1  18
TORSDOF 9
ENDMDL
MODEL 8
REMARK VINA RESULT:    -8.338      3.867      6.730
REMARK INTER + INTRA:         -14.107
REMARK INTER:                 -12.925
REMARK INTRA:                  -1.181
REMARK UNBOUND:                -1.625
REMARK SMILES Oc1ccc(N(CC/N=N/Nc2ccc3ncnc(-c4cccc(Cl)c4)c3c2)c2ccccn2)cc1
REMARK SMILES IDX 8 1 7 2 6 3 5 4 2 5 3 6 36 7 4 8 35 9 1 10 29 12 30 13 34 14
REMARK SMILES IDX 31 15 33 16 32 17 9 18 10 19 11 20 12 22 13 23 28 24 14 25
REMARK SMILES IDX 27 26 15 27 19 28 16 29 18 30 17 31 20 32 21 33 26 34 22 35
REMARK SMILES IDX 24 36 23 37 25 38
REMARK H PARENT 1 11 11 21
ROOT
ATOM      1  C   UNL     1      23.582   2.305  50.721  1.00  0.00    +0.191 C 
ENDROOT
BRANCH   1   2
ATOM      2  C   UNL     1      23.647   2.169  52.249  1.00  0.00    +0.150 C 
BRANCH   2   3
ATOM      3  N   UNL     1      24.200   0.864  52.681  1.00  0.00    -0.324 N 
BRANCH   3   4
ATOM      4  C   UNL     1      25.599   0.900  52.914  1.00  0.00    +0.043 A 
ATOM      5  C   UNL     1      28.370   0.940  53.364  1.00  0.00    +0.115 A 
ATOM      6  C   UNL     1      27.608   2.056  53.685  1.00  0.00    +0.048 A 
ATOM      7  C   UNL     1      27.777  -0.192  52.821  1.00  0.00    +0.048 A 
ATOM      8  C   UNL     1      26.227   2.034  53.458  1.00  0.00    +0.030 A 
ATOM      9  C   UNL     1      26.397  -0.210  52.597  1.00  0.00    +0.030 A 
BRANCH   5  10
ATOM     10  O   UNL     1      29.717   0.915  53.569  1.00  0.00    -0.508 OA
ATOM     11  H   UNL     1      29.933   1.534  54.285  1.00  0.00    +0.293 HD
ENDBRANCH   5  10
ENDBRANCH   3   4
BRANCH   3  12
ATOM     12  C   UNL     1      23.271   0.027  53.351  1.00  0.00    +0.132 A 
ATOM     13  C   UNL     1      21.954  -0.057  52.882  1.00  0.00    +0.047 A 
ATOM     14  N   UNL     1      23.642  -0.652  54.464  1.00  0.00    -0.239 NA
ATOM     15  C   UNL     1      21.024  -0.862  53.538  1.00  0.00    +0.005 A 
ATOM     16  C   UNL     1      22.724  -1.428  55.085  1.00  0.00    +0.113 A 
ATOM     17  C   UNL     1      21.417  -1.568  54.662  1.00  0.00    +0.020 A 
ENDBRANCH   3  12
ENDBRANCH   2   3
ENDBRANCH   1   2
BRANCH   1  18
ATOM     18  N   UNL     1      24.789   2.997  50.234  1.00  0.00    -0.169 NA
ATOM     19  N   UNL     1      24.922   4.125  50.743  1.00  0.00    -0.075 NA
BRANCH  19  20
ATOM     20  N   UNL     1      26.043   4.634  50.201  1.00  0.00    -0.260 N 
ATOM     21  H   UNL     1      26.756   3.943  49.993  1.00  0.00    +0.192 HD
BRANCH  20  22
ATOM     22  C   UNL     1      25.939   5.702  49.296  1.00  0.00    +0.059 A 
ATOM     23  C   UNL     1      24.736   6.063  48.689  1.00  0.00    +0.030 A 
ATOM     24  C   UNL     1      27.049   6.525  49.074  1.00  0.00    +0.040 A 
ATOM     25  C   UNL     1      24.664   7.178  47.844  1.00  0.00    +0.031 A 
ATOM     26  C   UNL     1      26.978   7.658  48.219  1.00  0.00    +0.029 A 
ATOM     27  C   UNL     1      25.768   7.980  47.593  1.00  0.00    +0.074 A 
ATOM     28  C   UNL     1      28.042   8.525  47.923  1.00  0.00    +0.082 A 
ATOM     29  N   UNL     1      25.629   9.028  46.773  1.00  0.00    -0.236 NA
ATOM     30  N   UNL     1      27.926   9.585  47.094  1.00  0.00    -0.236 NA
ATOM     31  C   UNL     1      26.716   9.781  46.562  1.00  0.00    +0.223 A 
BRANCH  28  32
ATOM     32  C   UNL     1      29.390   8.361  48.483  1.00  0.00    +0.002 A 
ATOM     33  C   UNL     1      30.430   7.817  47.709  1.00  0.00    +0.010 A 
ATOM     34  C   UNL     1      29.664   8.738  49.806  1.00  0.00    +0.030 A 
ATOM     35  C   UNL     1      31.714   7.671  48.238  1.00  0.00    +0.002 A 
ATOM     36  C   UNL     1      30.948   8.590  50.329  1.00  0.00    +0.041 A 
ATOM     37  C   UNL     1      31.974   8.060  49.550  1.00  0.00    +0.020 A 
ATOM     38 Cl   UNL     1      31.269   9.072  51.950  1.00  0.00    -0.084 Cl
ENDBRANCH  28  32
ENDBRANCH  20  22
ENDBRANCH  19  20
ENDBRANCH   1  18
TORSDOF 9
ENDMDL
MODEL 9
REMARK VINA RESULT:    -8.282      4.415      9.330
REMARK INTER + INTRA:         -14.022
REMARK INTER:                 -12.105
REMARK INTRA:                  -1.918
REMARK UNBOUND:                -1.625
REMARK SMILES Oc1ccc(N(CC/N=N/Nc2ccc3ncnc(-c4cccc(Cl)c4)c3c2)c2ccccn2)cc1
REMARK SMILES IDX 8 1 7 2 6 3 5 4 2 5 3 6 36 7 4 8 35 9 1 10 29 12 30 13 34 14
REMARK SMILES IDX 31 15 33 16 32 17 9 18 10 19 11 20 12 22 13 23 28 24 14 25
REMARK SMILES IDX 27 26 15 27 19 28 16 29 18 30 17 31 20 32 21 33 26 34 22 35
REMARK SMILES IDX 24 36 23 37 25 38
REMARK H PARENT 1 11 11 21
ROOT
ATOM      1  C   UNL     1      17.353   0.111  50.498  1.00  0.00    +0.191 C 
ENDROOT
BRANCH   1   2
ATOM      2  C   UNL     1      16.631   1.444  50.257  1.00  0.00    +0.150 C 
BRANCH   2   3
ATOM      3  N   UNL     1      16.874   2.426  51.339  1.00  0.00    -0.324 N 
BRANCH   3   4
ATOM      4  C   UNL     1      17.988   3.267  51.090  1.00  0.00    +0.043 A 
ATOM      5  C   UNL     1      20.211   4.917  50.623  1.00  0.00    +0.115 A 
ATOM      6  C   UNL     1      19.081   5.047  49.824  1.00  0.00    +0.048 A 
ATOM      7  C   UNL     1      20.253   3.978  51.644  1.00  0.00    +0.048 A 
ATOM      8  C   UNL     1      17.976   4.223  50.059  1.00  0.00    +0.030 A 
ATOM      9  C   UNL     1      19.147   3.157  51.875  1.00  0.00    +0.030 A 
BRANCH   5  10
ATOM     10  O   UNL     1      21.311   5.700  50.432  1.00  0.00    -0.508 OA
ATOM     11  H   UNL     1      21.567   6.086  51.285  1.00  0.00    +0.293 HD
ENDBRANCH   5  10
ENDBRANCH   3   4
BRANCH   3  12
ATOM     12  C   UNL     1      15.715   2.784  52.076  1.00  0.00    +0.132 A 
ATOM     13  C   UNL     1      15.661   4.028  52.716  1.00  0.00    +0.047 A 
ATOM     14  N   UNL     1      14.685   1.912  52.196  1.00  0.00    -0.239 NA
ATOM     15  C   UNL     1      14.537   4.389  53.458  1.00  0.00    +0.005 A 
ATOM     16  C   UNL     1      13.603   2.282  52.918  1.00  0.00    +0.113 A 
ATOM     17  C   UNL     1      13.481   3.500  53.558  1.00  0.00    +0.020 A 
ENDBRANCH   3  12
ENDBRANCH   2   3
ENDBRANCH   1   2
BRANCH   1  18
ATOM     18  N   UNL     1      17.874   0.072  51.876  1.00  0.00    -0.169 NA
ATOM     19  N   UNL     1      18.968  -0.518  51.949  1.00  0.00    -0.075 NA
BRANCH  19  20
ATOM     20  N   UNL     1      19.307  -0.485  53.251  1.00  0.00    -0.260 N 
ATOM     21  H   UNL     1      18.680  -1.002  53.858  1.00  0.00    +0.192 HD
BRANCH  20  22
ATOM     22  C   UNL     1      20.666  -0.515  53.601  1.00  0.00    +0.059 A 
ATOM     23  C   UNL     1      21.160  -1.299  54.645  1.00  0.00    +0.030 A 
ATOM     24  C   UNL     1      21.595   0.167  52.808  1.00  0.00    +0.040 A 
ATOM     25  C   UNL     1      22.533  -1.350  54.917  1.00  0.00    +0.031 A 
ATOM     26  C   UNL     1      22.990   0.114  53.080  1.00  0.00    +0.029 A 
ATOM     27  C   UNL     1      23.458  -0.652  54.155  1.00  0.00    +0.074 A 
ATOM     28  C   UNL     1      23.989   0.780  52.353  1.00  0.00    +0.082 A 
ATOM     29  N   UNL     1      24.754  -0.744  54.472  1.00  0.00    -0.236 NA
ATOM     30  N   UNL     1      25.303   0.705  52.658  1.00  0.00    -0.236 NA
ATOM     31  C   UNL     1      25.615  -0.060  53.708  1.00  0.00    +0.223 A 
BRANCH  28  32
ATOM     32  C   UNL     1      23.703   1.628  51.189  1.00  0.00    +0.002 A 
ATOM     33  C   UNL     1      24.546   2.703  50.856  1.00  0.00    +0.010 A 
ATOM     34  C   UNL     1      22.576   1.386  50.389  1.00  0.00    +0.030 A 
ATOM     35  C   UNL     1      24.280   3.503  49.742  1.00  0.00    +0.002 A 
ATOM     36  C   UNL     1      22.316   2.188  49.278  1.00  0.00    +0.041 A 
ATOM     37  C   UNL     1      23.163   3.243  48.950  1.00  0.00    +0.020 A 
ATOM     38 Cl   UNL     1      20.936   1.866  48.299  1.00  0.00    -0.084 Cl
ENDBRANCH  28  32
ENDBRANCH  20  22
ENDBRANCH  19  20
ENDBRANCH   1  18
TORSDOF 9
ENDMDL
