REMARK SMILES O=[N+]([O-])c1ccc(O)cc1-c1ccc(-c2ccccn2)[nH]1
REMARK SMILES IDX 4 1 5 2 6 3 7 4 9 5 10 6 2 7 1 8 3 9 11 10 12 11 21 12 13 13
REMARK SMILES IDX 14 14 15 16 16 17 20 18 17 19 19 20 18 21 8 22
REMARK H PARENT 21 15 8 23
ROOT
ATOM      1  C   UNL     1      -3.014   1.001   0.246  1.00  0.00    +0.278 A 
ATOM      2  C   UNL     1      -4.286   0.641   0.719  1.00  0.00    +0.090 A 
ATOM      3  C   UNL     1      -4.584  -0.707   0.911  1.00  0.00    +0.053 A 
ATOM      4  C   UNL     1      -3.612  -1.663   0.630  1.00  0.00    +0.116 A 
ATOM      5  C   UNL     1      -2.350  -1.298   0.157  1.00  0.00    +0.063 A 
ATOM      6  C   UNL     1      -2.023   0.052  -0.048  1.00  0.00    +0.079 A 
ENDROOT
BRANCH   1   7
ATOM      7  N   UNL     1      -2.745   2.415   0.107  1.00  0.00    +0.063 N 
ATOM      8  O   UNL     1      -3.224   2.981  -0.886  1.00  0.00    -0.258 OA
ATOM      9  O   UNL     1      -2.110   2.962   1.019  1.00  0.00    -0.258 OA
ENDBRANCH   1   7
BRANCH   6  10
ATOM     10  C   UNL     1      -0.697   0.392  -0.565  1.00  0.00    +0.053 A 
ATOM     11  C   UNL     1      -0.312   1.197  -1.622  1.00  0.00    +0.029 A 
ATOM     12  N   UNL     1       0.463  -0.104  -0.014  1.00  0.00    -0.353 N 
ATOM     13  C   UNL     1       1.104   1.182  -1.692  1.00  0.00    +0.030 A 
ATOM     14  C   UNL     1       1.574   0.363  -0.681  1.00  0.00    +0.065 A 
ATOM     15  H   UNL     1       0.530  -0.722   0.785  1.00  0.00    +0.167 HD
BRANCH  14  16
ATOM     16  C   UNL     1       2.916  -0.029  -0.266  1.00  0.00    +0.086 A 
ATOM     17  C   UNL     1       4.066   0.445  -0.885  1.00  0.00    +0.030 A 
ATOM     18  N   UNL     1       2.941  -0.898   0.776  1.00  0.00    -0.255 NA
ATOM     19  C   UNL     1       5.303   0.011  -0.415  1.00  0.00    +0.004 A 
ATOM     20  C   UNL     1       4.156  -1.300   1.209  1.00  0.00    +0.112 A 
ATOM     21  C   UNL     1       5.352  -0.878   0.652  1.00  0.00    +0.020 A 
ENDBRANCH  14  16
ENDBRANCH   6  10
BRANCH   4  22
ATOM     22  O   UNL     1      -3.858  -2.993   0.802  1.00  0.00    -0.508 OA
ATOM     23  H   UNL     1      -4.770  -3.112   1.116  1.00  0.00    +0.293 HD
ENDBRANCH   4  22
TORSDOF 4
