REMARK SMILES CN(CC/N=N/Nc1ccc2ncnc(-c3cccc(Cl)c3)c2c1)c1cccc(Cl)c1
REMARK SMILES IDX 5 1 6 2 4 3 3 4 2 5 1 6 25 7 26 8 31 9 27 10 29 11 28 12
REMARK SMILES IDX 30 13 7 14 8 16 9 17 24 18 10 19 23 20 11 21 15 22 12 23
REMARK SMILES IDX 14 24 13 25 16 26 17 27 22 28 18 29 20 30 19 31 21 32
REMARK H PARENT 7 15
ROOT
ATOM      1  N   UNL     1      -1.460  -2.103  -0.064  1.00  0.00    -0.169 NA
ATOM      2  N   UNL     1      -1.062  -1.034   0.432  1.00  0.00    -0.075 NA
ENDROOT
BRANCH   1   3
ATOM      3  C   UNL     1      -2.819  -2.454   0.390  1.00  0.00    +0.190 C 
BRANCH   3   4
ATOM      4  C   UNL     1      -3.800  -2.409  -0.789  1.00  0.00    +0.142 C 
BRANCH   4   5
ATOM      5  N   UNL     1      -4.173  -1.038  -1.189  1.00  0.00    -0.373 N 
ATOM      6  C   UNL     1      -3.265  -0.386  -2.135  1.00  0.00    +0.143 C 
BRANCH   5   7
ATOM      7  C   UNL     1      -5.023  -0.257  -0.401  1.00  0.00    +0.038 A 
ATOM      8  C   UNL     1      -5.109   1.141  -0.553  1.00  0.00    +0.026 A 
ATOM      9  C   UNL     1      -5.872  -0.818   0.569  1.00  0.00    +0.046 A 
ATOM     10  C   UNL     1      -5.964   1.934   0.224  1.00  0.00    +0.004 A 
ATOM     11  C   UNL     1      -6.729  -0.031   1.349  1.00  0.00    +0.043 A 
ATOM     12  C   UNL     1      -6.777   1.346   1.183  1.00  0.00    +0.020 A 
ATOM     13 Cl   UNL     1      -7.737  -0.781   2.528  1.00  0.00    -0.084 Cl
ENDBRANCH   5   7
ENDBRANCH   4   5
ENDBRANCH   3   4
ENDBRANCH   1   3
BRANCH   2  14
ATOM     14  N   UNL     1       0.168  -0.831  -0.073  1.00  0.00    -0.260 N 
ATOM     15  H   UNL     1       0.622  -1.664  -0.430  1.00  0.00    +0.192 HD
BRANCH  14  16
ATOM     16  C   UNL     1       1.008   0.111   0.545  1.00  0.00    +0.059 A 
ATOM     17  C   UNL     1       0.528   1.096   1.407  1.00  0.00    +0.030 A 
ATOM     18  C   UNL     1       2.364   0.154   0.203  1.00  0.00    +0.040 A 
ATOM     19  C   UNL     1       1.393   2.051   1.955  1.00  0.00    +0.031 A 
ATOM     20  C   UNL     1       3.244   1.131   0.748  1.00  0.00    +0.029 A 
ATOM     21  C   UNL     1       2.745   2.080   1.647  1.00  0.00    +0.074 A 
ATOM     22  C   UNL     1       4.619   1.243   0.476  1.00  0.00    +0.082 A 
ATOM     23  N   UNL     1       3.511   3.016   2.218  1.00  0.00    -0.236 NA
ATOM     24  N   UNL     1       5.412   2.171   1.057  1.00  0.00    -0.236 NA
ATOM     25  C   UNL     1       4.811   3.014   1.899  1.00  0.00    +0.223 A 
BRANCH  22  26
ATOM     26  C   UNL     1       5.337   0.367  -0.464  1.00  0.00    +0.002 A 
ATOM     27  C   UNL     1       6.326  -0.518  -0.000  1.00  0.00    +0.010 A 
ATOM     28  C   UNL     1       5.072   0.408  -1.843  1.00  0.00    +0.030 A 
ATOM     29  C   UNL     1       7.014  -1.354  -0.883  1.00  0.00    +0.002 A 
ATOM     30  C   UNL     1       5.762  -0.429  -2.720  1.00  0.00    +0.041 A 
ATOM     31  C   UNL     1       6.729  -1.312  -2.246  1.00  0.00    +0.020 A 
ATOM     32 Cl   UNL     1       5.411  -0.372  -4.404  1.00  0.00    -0.084 Cl
ENDBRANCH  22  26
ENDBRANCH  14  16
ENDBRANCH   2  14
TORSDOF 7
