REMARK SMILES Cc1cc(C)c(OC[C@@H](O)C[N+](C)(C)C)c(C)c1
REMARK SMILES IDX 8 1 7 2 6 3 2 4 3 5 18 6 4 7 16 8 1 9 5 10 17 11 9 12 10 13
REMARK SMILES IDX 11 15 12 16 13 17 14 18 15 19
REMARK H PARENT 10 14
ROOT
ATOM      1  C   UNL     1      -0.202  -0.098   0.607  1.00  0.00    +0.267 C 
ENDROOT
BRANCH   1   2
ATOM      2  O   UNL     1       1.018  -0.848   0.480  1.00  0.00    -0.490 OA
BRANCH   2   3
ATOM      3  C   UNL     1       2.101  -0.011   0.375  1.00  0.00    +0.125 A 
ATOM      4  C   UNL     1       4.317   1.678   0.099  1.00  0.00    -0.050 A 
ATOM      5  C   UNL     1       3.764   1.432   1.363  1.00  0.00    +0.010 A 
ATOM      6  C   UNL     1       3.751   1.064  -1.026  1.00  0.00    +0.010 A 
ATOM      7  C   UNL     1       2.671   0.566   1.521  1.00  0.00    -0.008 A 
ATOM      8  C   UNL     1       2.656   0.198  -0.899  1.00  0.00    -0.008 A 
ATOM      9  C   UNL     1       5.478   2.619  -0.052  1.00  0.00    +0.044 C 
ATOM     10  C   UNL     1       2.139   0.307   2.902  1.00  0.00    +0.048 C 
ATOM     11  C   UNL     1       2.082  -0.452  -2.126  1.00  0.00    +0.048 C 
ENDBRANCH   2   3
ENDBRANCH   1   2
BRANCH   1  12
ATOM     12  C   UNL     1      -1.278  -0.870  -0.172  1.00  0.00    +0.206 C 
BRANCH  12  13
ATOM     13  O   UNL     1      -1.381  -2.192   0.373  1.00  0.00    -0.384 OA
ATOM     14  H   UNL     1      -0.460  -2.513   0.491  1.00  0.00    +0.211 HD
ENDBRANCH  12  13
BRANCH  12  15
ATOM     15  C   UNL     1      -2.637  -0.149  -0.066  1.00  0.00    +0.299 C 
BRANCH  15  16
ATOM     16  N   UNL     1      -3.757  -0.721  -0.983  1.00  0.00    -0.329 N 
ATOM     17  C   UNL     1      -3.443  -0.488  -2.453  1.00  0.00    +0.334 C 
ATOM     18  C   UNL     1      -3.969  -2.217  -0.743  1.00  0.00    +0.334 C 
ATOM     19  C   UNL     1      -5.057   0.006  -0.641  1.00  0.00    +0.334 C 
ENDBRANCH  15  16
ENDBRANCH  12  15
ENDBRANCH   1  12
TORSDOF 6
