MODEL 1
REMARK VINA RESULT:    -6.878      0.000      0.000
REMARK INTER + INTRA:          -8.398
REMARK INTER:                  -7.883
REMARK INTRA:                  -0.515
REMARK UNBOUND:                -0.515
REMARK SMILES O=[N+]([O-])c1cc(-c2ccccn2)ccc1O
REMARK SMILES IDX 4 1 5 2 6 3 13 4 14 5 15 6 2 7 1 8 3 9 16 10 7 12 8 13 12 14
REMARK SMILES IDX 9 15 11 16 10 17
REMARK H PARENT 16 11
ROOT
ATOM      1  C   UNL     1      23.485  -0.506  53.873  1.00  0.00    +0.311 A 
ATOM      2  C   UNL     1      24.843  -0.862  53.997  1.00  0.00    +0.100 A 
ATOM      3  C   UNL     1      25.839  -0.181  53.273  1.00  0.00    +0.007 A 
ATOM      4  C   UNL     1      25.422   0.870  52.434  1.00  0.00    +0.015 A 
ATOM      5  C   UNL     1      24.074   1.224  52.308  1.00  0.00    +0.054 A 
ATOM      6  C   UNL     1      23.101   0.538  53.026  1.00  0.00    +0.194 A 
ENDROOT
BRANCH   1   7
ATOM      7  N   UNL     1      22.490  -1.254  54.647  1.00  0.00    +0.066 N 
ATOM      8  O   UNL     1      21.390  -1.475  54.123  1.00  0.00    -0.258 OA
ATOM      9  O   UNL     1      22.810  -1.618  55.789  1.00  0.00    -0.258 OA
ENDBRANCH   1   7
BRANCH   6  10
ATOM     10  O   UNL     1      21.818   0.968  52.827  1.00  0.00    -0.502 OA
ATOM     11  H   UNL     1      21.622   1.727  53.415  1.00  0.00    +0.293 HD
ENDBRANCH   6  10
BRANCH   3  12
ATOM     12  C   UNL     1      27.272  -0.531  53.384  1.00  0.00    +0.070 A 
ATOM     13  C   UNL     1      28.259   0.394  53.726  1.00  0.00    +0.029 A 
ATOM     14  N   UNL     1      27.576  -1.831  53.135  1.00  0.00    -0.256 NA
ATOM     15  C   UNL     1      29.587  -0.021  53.804  1.00  0.00    +0.004 A 
ATOM     16  C   UNL     1      28.872  -2.206  53.215  1.00  0.00    +0.111 A 
ATOM     17  C   UNL     1      29.903  -1.346  53.541  1.00  0.00    +0.020 A 
ENDBRANCH   3  12
TORSDOF 3
ENDMDL
MODEL 2
REMARK VINA RESULT:    -6.847      3.364      5.668
REMARK INTER + INTRA:          -8.362
REMARK INTER:                  -7.879
REMARK INTRA:                  -0.484
REMARK UNBOUND:                -0.515
REMARK SMILES O=[N+]([O-])c1cc(-c2ccccn2)ccc1O
REMARK SMILES IDX 4 1 5 2 6 3 13 4 14 5 15 6 2 7 1 8 3 9 16 10 7 12 8 13 12 14
REMARK SMILES IDX 9 15 11 16 10 17
REMARK H PARENT 16 11
ROOT
ATOM      1  C   UNL     1      27.911  -0.259  53.466  1.00  0.00    +0.311 A 
ATOM      2  C   UNL     1      26.580  -0.698  53.611  1.00  0.00    +0.100 A 
ATOM      3  C   UNL     1      25.509   0.214  53.589  1.00  0.00    +0.007 A 
ATOM      4  C   UNL     1      25.825   1.574  53.406  1.00  0.00    +0.015 A 
ATOM      5  C   UNL     1      27.146   2.013  53.262  1.00  0.00    +0.054 A 
ATOM      6  C   UNL     1      28.193   1.100  53.292  1.00  0.00    +0.194 A 
ENDROOT
BRANCH   1   7
ATOM      7  N   UNL     1      28.986  -1.254  53.503  1.00  0.00    +0.066 N 
ATOM      8  O   UNL     1      30.117  -0.878  53.838  1.00  0.00    -0.258 OA
ATOM      9  O   UNL     1      28.699  -2.420  53.188  1.00  0.00    -0.258 OA
ENDBRANCH   1   7
BRANCH   6  10
ATOM     10  O   UNL     1      29.442   1.637  53.142  1.00  0.00    -0.502 OA
ATOM     11  H   UNL     1      29.482   2.170  52.320  1.00  0.00    +0.293 HD
ENDBRANCH   6  10
BRANCH   3  12
ATOM     12  C   UNL     1      24.103  -0.218  53.738  1.00  0.00    +0.070 A 
ATOM     13  C   UNL     1      23.098   0.131  52.835  1.00  0.00    +0.029 A 
ATOM     14  N   UNL     1      23.841  -0.992  54.823  1.00  0.00    -0.256 NA
ATOM     15  C   UNL     1      21.796  -0.317  53.054  1.00  0.00    +0.004 A 
ATOM     16  C   UNL     1      22.571  -1.410  55.013  1.00  0.00    +0.111 A 
ATOM     17  C   UNL     1      21.524  -1.101  54.165  1.00  0.00    +0.020 A 
ENDBRANCH   3  12
TORSDOF 3
ENDMDL
MODEL 3
REMARK VINA RESULT:    -6.834      3.282      5.627
REMARK INTER + INTRA:          -8.348
REMARK INTER:                  -7.825
REMARK INTRA:                  -0.522
REMARK UNBOUND:                -0.515
REMARK SMILES O=[N+]([O-])c1cc(-c2ccccn2)ccc1O
REMARK SMILES IDX 4 1 5 2 6 3 13 4 14 5 15 6 2 7 1 8 3 9 16 10 7 12 8 13 12 14
REMARK SMILES IDX 9 15 11 16 10 17
REMARK H PARENT 16 11
ROOT
ATOM      1  C   UNL     1      26.970   0.504  54.107  1.00  0.00    +0.311 A 
ATOM      2  C   UNL     1      25.655   0.029  54.287  1.00  0.00    +0.100 A 
ATOM      3  C   UNL     1      24.632   0.374  53.386  1.00  0.00    +0.007 A 
ATOM      4  C   UNL     1      24.979   1.199  52.299  1.00  0.00    +0.015 A 
ATOM      5  C   UNL     1      26.284   1.672  52.119  1.00  0.00    +0.054 A 
ATOM      6  C   UNL     1      27.284   1.328  53.022  1.00  0.00    +0.194 A 
ENDROOT
BRANCH   1   7
ATOM      7  N   UNL     1      27.995   0.117  55.081  1.00  0.00    +0.066 N 
ATOM      8  O   UNL     1      29.136  -0.121  54.663  1.00  0.00    -0.258 OA
ATOM      9  O   UNL     1      27.654   0.045  56.273  1.00  0.00    -0.258 OA
ENDBRANCH   1   7
BRANCH   6  10
ATOM     10  O   UNL     1      28.520   1.845  52.750  1.00  0.00    -0.502 OA
ATOM     11  H   UNL     1      28.502   2.822  52.834  1.00  0.00    +0.293 HD
ENDBRANCH   6  10
BRANCH   3  12
ATOM     12  C   UNL     1      23.243  -0.110  53.548  1.00  0.00    +0.070 A 
ATOM     13  C   UNL     1      22.842  -0.937  54.597  1.00  0.00    +0.029 A 
ATOM     14  N   UNL     1      22.364   0.310  52.602  1.00  0.00    -0.256 NA
ATOM     15  C   UNL     1      21.512  -1.350  54.672  1.00  0.00    +0.004 A 
ATOM     16  C   UNL     1      21.083  -0.107  52.696  1.00  0.00    +0.111 A 
ATOM     17  C   UNL     1      20.613  -0.930  53.702  1.00  0.00    +0.020 A 
ENDBRANCH   3  12
TORSDOF 3
ENDMDL
MODEL 4
REMARK VINA RESULT:    -6.645      3.342      5.637
REMARK INTER + INTRA:          -8.131
REMARK INTER:                  -7.600
REMARK INTRA:                  -0.532
REMARK UNBOUND:                -0.515
REMARK SMILES O=[N+]([O-])c1cc(-c2ccccn2)ccc1O
REMARK SMILES IDX 4 1 5 2 6 3 13 4 14 5 15 6 2 7 1 8 3 9 16 10 7 12 8 13 12 14
REMARK SMILES IDX 9 15 11 16 10 17
REMARK H PARENT 16 11
ROOT
ATOM      1  C   UNL     1      24.122  -0.717  54.286  1.00  0.00    +0.311 A 
ATOM      2  C   UNL     1      23.888  -0.042  53.072  1.00  0.00    +0.100 A 
ATOM      3  C   UNL     1      22.585   0.107  52.565  1.00  0.00    +0.007 A 
ATOM      4  C   UNL     1      21.532  -0.436  53.325  1.00  0.00    +0.015 A 
ATOM      5  C   UNL     1      21.761  -1.109  54.531  1.00  0.00    +0.054 A 
ATOM      6  C   UNL     1      23.056  -1.252  55.016  1.00  0.00    +0.194 A 
ENDROOT
BRANCH   1   7
ATOM      7  N   UNL     1      25.502  -0.847  54.763  1.00  0.00    +0.066 N 
ATOM      8  O   UNL     1      26.393  -1.041  53.924  1.00  0.00    -0.258 OA
ATOM      9  O   UNL     1      25.696  -0.759  55.985  1.00  0.00    -0.258 OA
ENDBRANCH   1   7
BRANCH   6  10
ATOM     10  O   UNL     1      23.165  -1.926  56.201  1.00  0.00    -0.502 OA
ATOM     11  H   UNL     1      23.829  -1.490  56.776  1.00  0.00    +0.293 HD
ENDBRANCH   6  10
BRANCH   3  12
ATOM     12  C   UNL     1      22.309   0.811  51.294  1.00  0.00    +0.070 A 
ATOM     13  C   UNL     1      21.229   0.498  50.468  1.00  0.00    +0.029 A 
ATOM     14  N   UNL     1      23.179   1.803  50.975  1.00  0.00    -0.256 NA
ATOM     15  C   UNL     1      21.045   1.211  49.284  1.00  0.00    +0.004 A 
ATOM     16  C   UNL     1      22.979   2.476  49.821  1.00  0.00    +0.111 A 
ATOM     17  C   UNL     1      21.937   2.219  48.950  1.00  0.00    +0.020 A 
ENDBRANCH   3  12
TORSDOF 3
ENDMDL
MODEL 5
REMARK VINA RESULT:    -6.637      3.006      5.023
REMARK INTER + INTRA:          -8.122
REMARK INTER:                  -7.567
REMARK INTRA:                  -0.555
REMARK UNBOUND:                -0.515
REMARK SMILES O=[N+]([O-])c1cc(-c2ccccn2)ccc1O
REMARK SMILES IDX 4 1 5 2 6 3 13 4 14 5 15 6 2 7 1 8 3 9 16 10 7 12 8 13 12 14
REMARK SMILES IDX 9 15 11 16 10 17
REMARK H PARENT 16 11
ROOT
ATOM      1  C   UNL     1      26.134   0.026  54.582  1.00  0.00    +0.311 A 
ATOM      2  C   UNL     1      26.157   0.928  53.500  1.00  0.00    +0.100 A 
ATOM      3  C   UNL     1      25.043   1.074  52.654  1.00  0.00    +0.007 A 
ATOM      4  C   UNL     1      23.908   0.293  52.942  1.00  0.00    +0.015 A 
ATOM      5  C   UNL     1      23.882  -0.605  54.015  1.00  0.00    +0.054 A 
ATOM      6  C   UNL     1      24.994  -0.743  54.839  1.00  0.00    +0.194 A 
ENDROOT
BRANCH   1   7
ATOM      7  N   UNL     1      27.326  -0.090  55.426  1.00  0.00    +0.066 N 
ATOM      8  O   UNL     1      27.186   0.022  56.651  1.00  0.00    -0.258 OA
ATOM      9  O   UNL     1      28.412  -0.287  54.859  1.00  0.00    -0.258 OA
ENDBRANCH   1   7
BRANCH   6  10
ATOM     10  O   UNL     1      24.859  -1.647  55.856  1.00  0.00    -0.502 OA
ATOM     11  H   UNL     1      25.329  -2.478  55.632  1.00  0.00    +0.293 HD
ENDBRANCH   6  10
BRANCH   3  12
ATOM     12  C   UNL     1      25.039   2.014  51.512  1.00  0.00    +0.070 A 
ATOM     13  C   UNL     1      23.898   2.293  50.759  1.00  0.00    +0.029 A 
ATOM     14  N   UNL     1      26.230   2.605  51.237  1.00  0.00    -0.256 NA
ATOM     15  C   UNL     1      23.983   3.190  49.694  1.00  0.00    +0.004 A 
ATOM     16  C   UNL     1      26.285   3.468  50.199  1.00  0.00    +0.111 A 
ATOM     17  C   UNL     1      25.201   3.788  49.405  1.00  0.00    +0.020 A 
ENDBRANCH   3  12
TORSDOF 3
ENDMDL
MODEL 6
REMARK VINA RESULT:    -6.467      3.261      5.778
REMARK INTER + INTRA:          -7.927
REMARK INTER:                  -7.411
REMARK INTRA:                  -0.517
REMARK UNBOUND:                -0.515
REMARK SMILES O=[N+]([O-])c1cc(-c2ccccn2)ccc1O
REMARK SMILES IDX 4 1 5 2 6 3 13 4 14 5 15 6 2 7 1 8 3 9 16 10 7 12 8 13 12 14
REMARK SMILES IDX 9 15 11 16 10 17
REMARK H PARENT 16 11
ROOT
ATOM      1  C   UNL     1      27.396  -0.077  54.424  1.00  0.00    +0.311 A 
ATOM      2  C   UNL     1      26.002   0.097  54.534  1.00  0.00    +0.100 A 
ATOM      3  C   UNL     1      25.124  -0.479  53.599  1.00  0.00    +0.007 A 
ATOM      4  C   UNL     1      25.696  -1.240  52.561  1.00  0.00    +0.015 A 
ATOM      5  C   UNL     1      27.080  -1.413  52.448  1.00  0.00    +0.054 A 
ATOM      6  C   UNL     1      27.935  -0.833  53.378  1.00  0.00    +0.194 A 
ENDROOT
BRANCH   1   7
ATOM      7  N   UNL     1      28.263   0.551  55.425  1.00  0.00    +0.066 N 
ATOM      8  O   UNL     1      28.053   0.300  56.619  1.00  0.00    -0.258 OA
ATOM      9  O   UNL     1      29.158   1.306  55.013  1.00  0.00    -0.258 OA
ENDBRANCH   1   7
BRANCH   6  10
ATOM     10  O   UNL     1      29.267  -1.066  53.172  1.00  0.00    -0.502 OA
ATOM     11  H   UNL     1      29.595  -1.730  53.815  1.00  0.00    +0.293 HD
ENDBRANCH   6  10
BRANCH   3  12
ATOM     12  C   UNL     1      23.657  -0.315  53.689  1.00  0.00    +0.070 A 
ATOM     13  C   UNL     1      22.934   0.550  52.867  1.00  0.00    +0.029 A 
ATOM     14  N   UNL     1      23.042  -1.073  54.633  1.00  0.00    -0.256 NA
ATOM     15  C   UNL     1      21.552   0.646  53.023  1.00  0.00    +0.004 A 
ATOM     16  C   UNL     1      21.703  -0.958  54.766  1.00  0.00    +0.111 A 
ATOM     17  C   UNL     1      20.921  -0.120  53.993  1.00  0.00    +0.020 A 
ENDBRANCH   3  12
TORSDOF 3
ENDMDL
MODEL 7
REMARK VINA RESULT:    -6.450      1.892      3.099
REMARK INTER + INTRA:          -7.908
REMARK INTER:                  -7.389
REMARK INTRA:                  -0.519
REMARK UNBOUND:                -0.515
REMARK SMILES O=[N+]([O-])c1cc(-c2ccccn2)ccc1O
REMARK SMILES IDX 4 1 5 2 6 3 13 4 14 5 15 6 2 7 1 8 3 9 16 10 7 12 8 13 12 14
REMARK SMILES IDX 9 15 11 16 10 17
REMARK H PARENT 16 11
ROOT
ATOM      1  C   UNL     1      21.858  -0.053  53.018  1.00  0.00    +0.311 A 
ATOM      2  C   UNL     1      23.263   0.021  52.942  1.00  0.00    +0.100 A 
ATOM      3  C   UNL     1      24.073  -0.547  53.942  1.00  0.00    +0.007 A 
ATOM      4  C   UNL     1      23.422  -1.198  55.007  1.00  0.00    +0.015 A 
ATOM      5  C   UNL     1      22.026  -1.273  55.085  1.00  0.00    +0.054 A 
ATOM      6  C   UNL     1      21.239  -0.701  54.092  1.00  0.00    +0.194 A 
ENDROOT
BRANCH   1   7
ATOM      7  N   UNL     1      21.064   0.562  51.951  1.00  0.00    +0.066 N 
ATOM      8  O   UNL     1      21.338   0.272  50.778  1.00  0.00    -0.258 OA
ATOM      9  O   UNL     1      20.163   1.346  52.287  1.00  0.00    -0.258 OA
ENDBRANCH   1   7
BRANCH   6  10
ATOM     10  O   UNL     1      19.889  -0.832  54.269  1.00  0.00    -0.502 OA
ATOM     11  H   UNL     1      19.473  -1.163  53.445  1.00  0.00    +0.293 HD
ENDBRANCH   6  10
BRANCH   3  12
ATOM     12  C   UNL     1      25.549  -0.486  53.889  1.00  0.00    +0.070 A 
ATOM     13  C   UNL     1      26.298  -1.021  52.840  1.00  0.00    +0.029 A 
ATOM     14  N   UNL     1      26.146   0.138  54.937  1.00  0.00    -0.256 NA
ATOM     15  C   UNL     1      27.688  -0.923  52.872  1.00  0.00    +0.004 A 
ATOM     16  C   UNL     1      27.495   0.217  54.944  1.00  0.00    +0.111 A 
ATOM     17  C   UNL     1      28.301  -0.294  53.945  1.00  0.00    +0.020 A 
ENDBRANCH   3  12
TORSDOF 3
ENDMDL
MODEL 8
REMARK VINA RESULT:    -6.412      3.266      6.286
REMARK INTER + INTRA:          -7.865
REMARK INTER:                  -7.385
REMARK INTRA:                  -0.480
REMARK UNBOUND:                -0.515
REMARK SMILES O=[N+]([O-])c1cc(-c2ccccn2)ccc1O
REMARK SMILES IDX 4 1 5 2 6 3 13 4 14 5 15 6 2 7 1 8 3 9 16 10 7 12 8 13 12 14
REMARK SMILES IDX 9 15 11 16 10 17
REMARK H PARENT 16 11
ROOT
ATOM      1  C   UNL     1      24.592  -0.585  53.994  1.00  0.00    +0.311 A 
ATOM      2  C   UNL     1      23.652  -0.177  53.027  1.00  0.00    +0.100 A 
ATOM      3  C   UNL     1      22.273  -0.349  53.239  1.00  0.00    +0.007 A 
ATOM      4  C   UNL     1      21.875  -0.932  54.457  1.00  0.00    +0.015 A 
ATOM      5  C   UNL     1      22.806  -1.340  55.419  1.00  0.00    +0.054 A 
ATOM      6  C   UNL     1      24.167  -1.169  55.192  1.00  0.00    +0.194 A 
ENDROOT
BRANCH   1   7
ATOM      7  N   UNL     1      26.017  -0.387  53.716  1.00  0.00    +0.066 N 
ATOM      8  O   UNL     1      26.380  -0.344  52.533  1.00  0.00    -0.258 OA
ATOM      9  O   UNL     1      26.780  -0.279  54.689  1.00  0.00    -0.258 OA
ENDBRANCH   1   7
BRANCH   6  10
ATOM     10  O   UNL     1      24.986  -1.602  56.198  1.00  0.00    -0.502 OA
ATOM     11  H   UNL     1      25.011  -0.939  56.920  1.00  0.00    +0.293 HD
ENDBRANCH   6  10
BRANCH   3  12
ATOM     12  C   UNL     1      21.264   0.071  52.242  1.00  0.00    +0.070 A 
ATOM     13  C   UNL     1      21.598   0.604  50.997  1.00  0.00    +0.029 A 
ATOM     14  N   UNL     1      19.969  -0.101  52.614  1.00  0.00    -0.256 NA
ATOM     15  C   UNL     1      20.582   0.978  50.118  1.00  0.00    +0.004 A 
ATOM     16  C   UNL     1      19.005   0.271  51.744  1.00  0.00    +0.111 A 
ATOM     17  C   UNL     1      19.258   0.811  50.498  1.00  0.00    +0.020 A 
ENDBRANCH   3  12
TORSDOF 3
ENDMDL
MODEL 9
REMARK VINA RESULT:    -6.177      2.137      3.227
REMARK INTER + INTRA:          -7.594
REMARK INTER:                  -7.060
REMARK INTRA:                  -0.534
REMARK UNBOUND:                -0.515
REMARK SMILES O=[N+]([O-])c1cc(-c2ccccn2)ccc1O
REMARK SMILES IDX 4 1 5 2 6 3 13 4 14 5 15 6 2 7 1 8 3 9 16 10 7 12 8 13 12 14
REMARK SMILES IDX 9 15 11 16 10 17
REMARK H PARENT 16 11
ROOT
ATOM      1  C   UNL     1      23.802   2.082  52.809  1.00  0.00    +0.311 A 
ATOM      2  C   UNL     1      25.164   1.759  52.975  1.00  0.00    +0.100 A 
ATOM      3  C   UNL     1      25.561   0.460  53.339  1.00  0.00    +0.007 A 
ATOM      4  C   UNL     1      24.545  -0.499  53.517  1.00  0.00    +0.015 A 
ATOM      5  C   UNL     1      23.192  -0.180  53.355  1.00  0.00    +0.054 A 
ATOM      6  C   UNL     1      22.815   1.111  53.001  1.00  0.00    +0.194 A 
ENDROOT
BRANCH   1   7
ATOM      7  N   UNL     1      23.447   3.454  52.436  1.00  0.00    +0.066 N 
ATOM      8  O   UNL     1      23.848   4.378  53.157  1.00  0.00    -0.258 OA
ATOM      9  O   UNL     1      22.756   3.609  51.416  1.00  0.00    -0.258 OA
ENDBRANCH   1   7
BRANCH   6  10
ATOM     10  O   UNL     1      21.468   1.311  52.869  1.00  0.00    -0.502 OA
ATOM     11  H   UNL     1      21.048   0.518  52.474  1.00  0.00    +0.293 HD
ENDBRANCH   6  10
BRANCH   3  12
ATOM     12  C   UNL     1      26.982   0.091  53.518  1.00  0.00    +0.070 A 
ATOM     13  C   UNL     1      27.539  -1.075  52.994  1.00  0.00    +0.029 A 
ATOM     14  N   UNL     1      27.728   0.973  54.232  1.00  0.00    -0.256 NA
ATOM     15  C   UNL     1      28.889  -1.348  53.215  1.00  0.00    +0.004 A 
ATOM     16  C   UNL     1      29.032   0.683  54.434  1.00  0.00    +0.111 A 
ATOM     17  C   UNL     1      29.652  -0.454  53.951  1.00  0.00    +0.020 A 
ENDBRANCH   3  12
TORSDOF 3
ENDMDL
