MODEL 1
REMARK VINA RESULT:    -8.585      0.000      0.000
REMARK INTER + INTRA:         -11.128
REMARK INTER:                 -10.843
REMARK INTRA:                  -0.285
REMARK UNBOUND:                -0.285
REMARK SMILES C/N=N/Nc1ccc2ncnc(-c3ccc(O)c([N+](=O)[O-])c3)c2c1
REMARK SMILES IDX 5 1 6 2 7 3 8 4 9 5 10 6 11 7 12 8 23 9 24 10 4 11 3 13 2 14
REMARK SMILES IDX 1 15 13 16 14 17 22 18 15 19 18 20 16 21 19 22 20 23 21 24
REMARK SMILES IDX 17 25
REMARK H PARENT 4 12 17 26
ROOT
ATOM      1  C   UNL     1      25.437   3.047  50.714  1.00  0.00    +0.059 A 
ATOM      2  C   UNL     1      24.996   3.701  49.564  1.00  0.00    +0.030 A 
ATOM      3  C   UNL     1      23.698   3.503  49.079  1.00  0.00    +0.031 A 
ATOM      4  C   UNL     1      22.804   2.645  49.701  1.00  0.00    +0.074 A 
ATOM      5  N   UNL     1      21.585   2.499  49.172  1.00  0.00    -0.236 NA
ATOM      6  C   UNL     1      20.756   1.645  49.782  1.00  0.00    +0.223 A 
ATOM      7  N   UNL     1      21.029   0.931  50.878  1.00  0.00    -0.236 NA
ATOM      8  C   UNL     1      22.259   1.106  51.410  1.00  0.00    +0.082 A 
ATOM      9  C   UNL     1      23.225   1.961  50.847  1.00  0.00    +0.029 A 
ATOM     10  C   UNL     1      24.550   2.156  51.331  1.00  0.00    +0.040 A 
ENDROOT
BRANCH   1  11
ATOM     11  N   UNL     1      26.751   3.158  51.195  1.00  0.00    -0.260 N 
ATOM     12  H   UNL     1      27.380   3.736  50.651  1.00  0.00    +0.192 HD
BRANCH  11  13
ATOM     13  N   UNL     1      27.330   2.087  51.770  1.00  0.00    -0.075 NA
ATOM     14  N   UNL     1      28.039   2.542  52.686  1.00  0.00    -0.174 NA
ATOM     15  C   UNL     1      28.726   1.473  53.415  1.00  0.00    +0.200 C 
ENDBRANCH  11  13
ENDBRANCH   1  11
BRANCH   8  16
ATOM     16  C   UNL     1      22.478   0.316  52.633  1.00  0.00    +0.008 A 
ATOM     17  C   UNL     1      21.402  -0.251  53.338  1.00  0.00    +0.015 A 
ATOM     18  C   UNL     1      23.782   0.078  53.101  1.00  0.00    +0.100 A 
ATOM     19  C   UNL     1      21.617  -1.013  54.490  1.00  0.00    +0.054 A 
ATOM     20  C   UNL     1      23.998  -0.692  54.256  1.00  0.00    +0.311 A 
ATOM     21  C   UNL     1      22.912  -1.235  54.955  1.00  0.00    +0.194 A 
BRANCH  20  22
ATOM     22  N   UNL     1      25.372  -0.908  54.713  1.00  0.00    +0.066 N 
ATOM     23  O   UNL     1      26.232  -1.141  53.848  1.00  0.00    -0.258 OA
ATOM     24  O   UNL     1      25.600  -0.854  55.929  1.00  0.00    -0.258 OA
ENDBRANCH  20  22
BRANCH  21  25
ATOM     25  O   UNL     1      23.000  -1.995  56.090  1.00  0.00    -0.502 OA
ATOM     26  H   UNL     1      22.460  -1.593  56.804  1.00  0.00    +0.293 HD
ENDBRANCH  21  25
ENDBRANCH   8  16
TORSDOF 5
ENDMDL
MODEL 2
REMARK VINA RESULT:    -8.321      2.487      4.984
REMARK INTER + INTRA:         -10.796
REMARK INTER:                 -10.122
REMARK INTRA:                  -0.673
REMARK UNBOUND:                -0.285
REMARK SMILES C/N=N/Nc1ccc2ncnc(-c3ccc(O)c([N+](=O)[O-])c3)c2c1
REMARK SMILES IDX 5 1 6 2 7 3 8 4 9 5 10 6 11 7 12 8 23 9 24 10 4 11 3 13 2 14
REMARK SMILES IDX 1 15 13 16 14 17 22 18 15 19 18 20 16 21 19 22 20 23 21 24
REMARK SMILES IDX 17 25
REMARK H PARENT 4 12 17 26
ROOT
ATOM      1  C   UNL     1      22.184   1.330  50.841  1.00  0.00    +0.059 A 
ATOM      2  C   UNL     1      20.929   0.832  51.190  1.00  0.00    +0.030 A 
ATOM      3  C   UNL     1      20.760   0.064  52.348  1.00  0.00    +0.031 A 
ATOM      4  C   UNL     1      21.820  -0.250  53.184  1.00  0.00    +0.074 A 
ATOM      5  N   UNL     1      21.581  -0.999  54.266  1.00  0.00    -0.236 NA
ATOM      6  C   UNL     1      22.630  -1.304  55.038  1.00  0.00    +0.223 A 
ATOM      7  N   UNL     1      23.894  -0.921  54.833  1.00  0.00    -0.236 NA
ATOM      8  C   UNL     1      24.113  -0.149  53.746  1.00  0.00    +0.082 A 
ATOM      9  C   UNL     1      23.094   0.222  52.848  1.00  0.00    +0.029 A 
ATOM     10  C   UNL     1      23.265   0.993  51.664  1.00  0.00    +0.040 A 
ENDROOT
BRANCH   1  11
ATOM     11  N   UNL     1      22.416   2.042  49.653  1.00  0.00    -0.260 N 
ATOM     12  H   UNL     1      22.135   1.584  48.794  1.00  0.00    +0.192 HD
BRANCH  11  13
ATOM     13  N   UNL     1      23.526   2.796  49.548  1.00  0.00    -0.075 NA
ATOM     14  N   UNL     1      23.131   3.929  49.215  1.00  0.00    -0.174 NA
ATOM     15  C   UNL     1      24.247   4.867  49.077  1.00  0.00    +0.200 C 
ENDBRANCH  11  13
ENDBRANCH   1  11
BRANCH   8  16
ATOM     16  C   UNL     1      25.520   0.262  53.604  1.00  0.00    +0.008 A 
ATOM     17  C   UNL     1      25.881   1.619  53.536  1.00  0.00    +0.015 A 
ATOM     18  C   UNL     1      26.541  -0.703  53.572  1.00  0.00    +0.100 A 
ATOM     19  C   UNL     1      27.220   2.002  53.416  1.00  0.00    +0.054 A 
ATOM     20  C   UNL     1      27.887  -0.317  53.456  1.00  0.00    +0.311 A 
ATOM     21  C   UNL     1      28.227   1.039  53.373  1.00  0.00    +0.194 A 
BRANCH  20  22
ATOM     22  N   UNL     1      28.919  -1.356  53.418  1.00  0.00    +0.066 N 
ATOM     23  O   UNL     1      28.559  -2.508  53.125  1.00  0.00    -0.258 OA
ATOM     24  O   UNL     1      30.084  -1.034  53.685  1.00  0.00    -0.258 OA
ENDBRANCH  20  22
BRANCH  21  25
ATOM     25  O   UNL     1      29.498   1.532  53.254  1.00  0.00    -0.502 OA
ATOM     26  H   UNL     1      29.504   2.494  53.450  1.00  0.00    +0.293 HD
ENDBRANCH  21  25
ENDBRANCH   8  16
TORSDOF 5
ENDMDL
MODEL 3
REMARK VINA RESULT:    -8.235      2.122      5.143
REMARK INTER + INTRA:         -10.686
REMARK INTER:                 -10.425
REMARK INTRA:                  -0.261
REMARK UNBOUND:                -0.285
REMARK SMILES C/N=N/Nc1ccc2ncnc(-c3ccc(O)c([N+](=O)[O-])c3)c2c1
REMARK SMILES IDX 5 1 6 2 7 3 8 4 9 5 10 6 11 7 12 8 23 9 24 10 4 11 3 13 2 14
REMARK SMILES IDX 1 15 13 16 14 17 22 18 15 19 18 20 16 21 19 22 20 23 21 24
REMARK SMILES IDX 17 25
REMARK H PARENT 4 12 17 26
ROOT
ATOM      1  C   UNL     1      23.108  -1.253  54.884  1.00  0.00    +0.059 A 
ATOM      2  C   UNL     1      21.811  -1.745  55.027  1.00  0.00    +0.030 A 
ATOM      3  C   UNL     1      20.784  -1.313  54.179  1.00  0.00    +0.031 A 
ATOM      4  C   UNL     1      20.999  -0.375  53.182  1.00  0.00    +0.074 A 
ATOM      5  N   UNL     1      19.965  -0.003  52.420  1.00  0.00    -0.236 NA
ATOM      6  C   UNL     1      20.202   0.922  51.483  1.00  0.00    +0.223 A 
ATOM      7  N   UNL     1      21.378   1.503  51.232  1.00  0.00    -0.236 NA
ATOM      8  C   UNL     1      22.416   1.100  51.999  1.00  0.00    +0.082 A 
ATOM      9  C   UNL     1      22.288   0.150  53.028  1.00  0.00    +0.029 A 
ATOM     10  C   UNL     1      23.327  -0.283  53.899  1.00  0.00    +0.040 A 
ENDROOT
BRANCH   1  11
ATOM     11  N   UNL     1      24.153  -1.601  55.755  1.00  0.00    -0.260 N 
ATOM     12  H   UNL     1      23.886  -1.838  56.704  1.00  0.00    +0.192 HD
BRANCH  11  13
ATOM     13  N   UNL     1      25.333  -0.964  55.649  1.00  0.00    -0.075 NA
ATOM     14  N   UNL     1      25.744  -0.823  56.816  1.00  0.00    -0.174 NA
ATOM     15  C   UNL     1      27.043  -0.148  56.850  1.00  0.00    +0.200 C 
ENDBRANCH  11  13
ENDBRANCH   1  11
BRANCH   8  16
ATOM     16  C   UNL     1      23.686   1.756  51.643  1.00  0.00    +0.008 A 
ATOM     17  C   UNL     1      23.811   2.517  50.468  1.00  0.00    +0.015 A 
ATOM     18  C   UNL     1      24.797   1.664  52.500  1.00  0.00    +0.100 A 
ATOM     19  C   UNL     1      25.014   3.149  50.144  1.00  0.00    +0.054 A 
ATOM     20  C   UNL     1      26.005   2.304  52.175  1.00  0.00    +0.311 A 
ATOM     21  C   UNL     1      26.115   3.045  50.992  1.00  0.00    +0.194 A 
BRANCH  20  22
ATOM     22  N   UNL     1      27.140   2.175  53.092  1.00  0.00    +0.066 N 
ATOM     23  O   UNL     1      28.262   1.998  52.591  1.00  0.00    -0.258 OA
ATOM     24  O   UNL     1      26.919   2.242  54.309  1.00  0.00    -0.258 OA
ENDBRANCH  20  22
BRANCH  21  25
ATOM     25  O   UNL     1      27.238   3.705  50.571  1.00  0.00    -0.502 OA
ATOM     26  H   UNL     1      27.528   4.342  51.259  1.00  0.00    +0.293 HD
ENDBRANCH  21  25
ENDBRANCH   8  16
TORSDOF 5
ENDMDL
MODEL 4
REMARK VINA RESULT:    -8.088      3.313      5.504
REMARK INTER + INTRA:         -10.501
REMARK INTER:                  -9.815
REMARK INTRA:                  -0.686
REMARK UNBOUND:                -0.285
REMARK SMILES C/N=N/Nc1ccc2ncnc(-c3ccc(O)c([N+](=O)[O-])c3)c2c1
REMARK SMILES IDX 5 1 6 2 7 3 8 4 9 5 10 6 11 7 12 8 23 9 24 10 4 11 3 13 2 14
REMARK SMILES IDX 1 15 13 16 14 17 22 18 15 19 18 20 16 21 19 22 20 23 21 24
REMARK SMILES IDX 17 25
REMARK H PARENT 4 12 17 26
ROOT
ATOM      1  C   UNL     1      25.094  -0.544  54.544  1.00  0.00    +0.059 A 
ATOM      2  C   UNL     1      24.499  -1.368  55.497  1.00  0.00    +0.030 A 
ATOM      3  C   UNL     1      23.114  -1.578  55.501  1.00  0.00    +0.031 A 
ATOM      4  C   UNL     1      22.277  -0.970  54.578  1.00  0.00    +0.074 A 
ATOM      5  N   UNL     1      20.963  -1.210  54.652  1.00  0.00    -0.236 NA
ATOM      6  C   UNL     1      20.181  -0.589  53.763  1.00  0.00    +0.223 A 
ATOM      7  N   UNL     1      20.591   0.242  52.801  1.00  0.00    -0.236 NA
ATOM      8  C   UNL     1      21.923   0.457  52.729  1.00  0.00    +0.082 A 
ATOM      9  C   UNL     1      22.845  -0.123  53.620  1.00  0.00    +0.029 A 
ATOM     10  C   UNL     1      24.251   0.097  53.627  1.00  0.00    +0.040 A 
ENDROOT
BRANCH   1  11
ATOM     11  N   UNL     1      26.466  -0.246  54.545  1.00  0.00    -0.260 N 
ATOM     12  H   UNL     1      26.711   0.737  54.584  1.00  0.00    +0.192 HD
BRANCH  11  13
ATOM     13  N   UNL     1      27.301  -1.002  53.809  1.00  0.00    -0.075 NA
ATOM     14  N   UNL     1      28.448  -0.701  54.189  1.00  0.00    -0.174 NA
ATOM     15  C   UNL     1      29.469  -1.468  53.474  1.00  0.00    +0.200 C 
ENDBRANCH  11  13
ENDBRANCH   1  11
BRANCH   8  16
ATOM     16  C   UNL     1      22.304   1.355  51.625  1.00  0.00    +0.008 A 
ATOM     17  C   UNL     1      21.970   1.058  50.293  1.00  0.00    +0.015 A 
ATOM     18  C   UNL     1      22.983   2.558  51.891  1.00  0.00    +0.100 A 
ATOM     19  C   UNL     1      22.322   1.921  49.252  1.00  0.00    +0.054 A 
ATOM     20  C   UNL     1      23.332   3.428  50.844  1.00  0.00    +0.311 A 
ATOM     21  C   UNL     1      23.005   3.106  49.521  1.00  0.00    +0.194 A 
BRANCH  20  22
ATOM     22  N   UNL     1      24.046   4.666  51.165  1.00  0.00    +0.066 N 
ATOM     23  O   UNL     1      25.008   4.974  50.442  1.00  0.00    -0.258 OA
ATOM     24  O   UNL     1      23.660   5.329  52.136  1.00  0.00    -0.258 OA
ENDBRANCH  20  22
BRANCH  21  25
ATOM     25  O   UNL     1      23.296   3.871  48.424  1.00  0.00    -0.502 OA
ATOM     26  H   UNL     1      22.749   4.686  48.430  1.00  0.00    +0.293 HD
ENDBRANCH  21  25
ENDBRANCH   8  16
TORSDOF 5
ENDMDL
MODEL 5
REMARK VINA RESULT:    -8.085      2.380      4.131
REMARK INTER + INTRA:         -10.497
REMARK INTER:                  -9.497
REMARK INTRA:                  -1.000
REMARK UNBOUND:                -0.285
REMARK SMILES C/N=N/Nc1ccc2ncnc(-c3ccc(O)c([N+](=O)[O-])c3)c2c1
REMARK SMILES IDX 5 1 6 2 7 3 8 4 9 5 10 6 11 7 12 8 23 9 24 10 4 11 3 13 2 14
REMARK SMILES IDX 1 15 13 16 14 17 22 18 15 19 18 20 16 21 19 22 20 23 21 24
REMARK SMILES IDX 17 25
REMARK H PARENT 4 12 17 26
ROOT
ATOM      1  C   UNL     1      23.066   2.917  51.318  1.00  0.00    +0.059 A 
ATOM      2  C   UNL     1      21.690   2.997  51.529  1.00  0.00    +0.030 A 
ATOM      3  C   UNL     1      21.044   2.105  52.393  1.00  0.00    +0.031 A 
ATOM      4  C   UNL     1      21.729   1.100  53.059  1.00  0.00    +0.074 A 
ATOM      5  N   UNL     1      21.040   0.280  53.860  1.00  0.00    -0.236 NA
ATOM      6  C   UNL     1      21.727  -0.694  54.467  1.00  0.00    +0.223 A 
ATOM      7  N   UNL     1      23.039  -0.917  54.357  1.00  0.00    -0.236 NA
ATOM      8  C   UNL     1      23.722  -0.065  53.560  1.00  0.00    +0.082 A 
ATOM      9  C   UNL     1      23.108   0.984  52.852  1.00  0.00    +0.029 A 
ATOM     10  C   UNL     1      23.760   1.886  51.964  1.00  0.00    +0.040 A 
ENDROOT
BRANCH   1  11
ATOM     11  N   UNL     1      23.745   3.740  50.407  1.00  0.00    -0.260 N 
ATOM     12  H   UNL     1      23.283   3.905  49.520  1.00  0.00    +0.192 HD
BRANCH  11  13
ATOM     13  N   UNL     1      25.087   3.668  50.333  1.00  0.00    -0.075 NA
ATOM     14  N   UNL     1      25.404   4.337  49.332  1.00  0.00    -0.174 NA
ATOM     15  C   UNL     1      26.855   4.357  49.136  1.00  0.00    +0.200 C 
ENDBRANCH  11  13
ENDBRANCH   1  11
BRANCH   8  16
ATOM     16  C   UNL     1      25.166  -0.350  53.514  1.00  0.00    +0.008 A 
ATOM     17  C   UNL     1      25.719  -1.162  52.509  1.00  0.00    +0.015 A 
ATOM     18  C   UNL     1      26.033   0.222  54.462  1.00  0.00    +0.100 A 
ATOM     19  C   UNL     1      27.092  -1.416  52.462  1.00  0.00    +0.054 A 
ATOM     20  C   UNL     1      27.414  -0.030  54.412  1.00  0.00    +0.311 A 
ATOM     21  C   UNL     1      27.944  -0.855  53.411  1.00  0.00    +0.194 A 
BRANCH  20  22
ATOM     22  N   UNL     1      28.280   0.580  55.423  1.00  0.00    +0.066 N 
ATOM     23  O   UNL     1      29.187   1.328  55.024  1.00  0.00    -0.258 OA
ATOM     24  O   UNL     1      28.067   0.313  56.613  1.00  0.00    -0.258 OA
ENDBRANCH  20  22
BRANCH  21  25
ATOM     25  O   UNL     1      29.267  -1.173  53.266  1.00  0.00    -0.502 OA
ATOM     26  H   UNL     1      29.793  -0.359  53.113  1.00  0.00    +0.293 HD
ENDBRANCH  21  25
ENDBRANCH   8  16
TORSDOF 5
ENDMDL
MODEL 6
REMARK VINA RESULT:    -7.745      2.327      5.669
REMARK INTER + INTRA:         -10.067
REMARK INTER:                  -9.904
REMARK INTRA:                  -0.163
REMARK UNBOUND:                -0.285
REMARK SMILES C/N=N/Nc1ccc2ncnc(-c3ccc(O)c([N+](=O)[O-])c3)c2c1
REMARK SMILES IDX 5 1 6 2 7 3 8 4 9 5 10 6 11 7 12 8 23 9 24 10 4 11 3 13 2 14
REMARK SMILES IDX 1 15 13 16 14 17 22 18 15 19 18 20 16 21 19 22 20 23 21 24
REMARK SMILES IDX 17 25
REMARK H PARENT 4 12 17 26
ROOT
ATOM      1  C   UNL     1      20.329   0.669  51.729  1.00  0.00    +0.059 A 
ATOM      2  C   UNL     1      19.427  -0.146  52.412  1.00  0.00    +0.030 A 
ATOM      3  C   UNL     1      19.842  -0.913  53.507  1.00  0.00    +0.031 A 
ATOM      4  C   UNL     1      21.156  -0.913  53.949  1.00  0.00    +0.074 A 
ATOM      5  N   UNL     1      21.478  -1.682  54.995  1.00  0.00    -0.236 NA
ATOM      6  C   UNL     1      22.759  -1.678  55.381  1.00  0.00    +0.223 A 
ATOM      7  N   UNL     1      23.745  -0.969  54.824  1.00  0.00    -0.236 NA
ATOM      8  C   UNL     1      23.397  -0.183  53.780  1.00  0.00    +0.082 A 
ATOM      9  C   UNL     1      22.087  -0.118  53.271  1.00  0.00    +0.029 A 
ATOM     10  C   UNL     1      21.664   0.652  52.151  1.00  0.00    +0.040 A 
ENDROOT
BRANCH   1  11
ATOM     11  N   UNL     1      19.976   1.399  50.583  1.00  0.00    -0.260 N 
ATOM     12  H   UNL     1      19.236   1.008  50.013  1.00  0.00    +0.192 HD
BRANCH  11  13
ATOM     13  N   UNL     1      20.939   2.036  49.890  1.00  0.00    -0.075 NA
ATOM     14  N   UNL     1      20.994   1.460  48.788  1.00  0.00    -0.174 NA
ATOM     15  C   UNL     1      22.003   2.066  47.916  1.00  0.00    +0.200 C 
ENDBRANCH  11  13
ENDBRANCH   1  11
BRANCH   8  16
ATOM     16  C   UNL     1      24.525   0.593  53.240  1.00  0.00    +0.008 A 
ATOM     17  C   UNL     1      24.346   1.509  52.189  1.00  0.00    +0.015 A 
ATOM     18  C   UNL     1      25.810   0.459  53.796  1.00  0.00    +0.100 A 
ATOM     19  C   UNL     1      25.418   2.254  51.691  1.00  0.00    +0.054 A 
ATOM     20  C   UNL     1      26.887   1.212  53.298  1.00  0.00    +0.311 A 
ATOM     21  C   UNL     1      26.691   2.108  52.240  1.00  0.00    +0.194 A 
BRANCH  20  22
ATOM     22  N   UNL     1      28.209   1.035  53.902  1.00  0.00    +0.066 N 
ATOM     23  O   UNL     1      28.743  -0.081  53.792  1.00  0.00    -0.258 OA
ATOM     24  O   UNL     1      28.717   1.998  54.491  1.00  0.00    -0.258 OA
ENDBRANCH  20  22
BRANCH  21  25
ATOM     25  O   UNL     1      27.662   2.887  51.672  1.00  0.00    -0.502 OA
ATOM     26  H   UNL     1      28.483   2.842  52.207  1.00  0.00    +0.293 HD
ENDBRANCH  21  25
ENDBRANCH   8  16
TORSDOF 5
ENDMDL
MODEL 7
REMARK VINA RESULT:    -7.615      2.778      4.230
REMARK INTER + INTRA:          -9.904
REMARK INTER:                  -9.830
REMARK INTRA:                  -0.074
REMARK UNBOUND:                -0.285
REMARK SMILES C/N=N/Nc1ccc2ncnc(-c3ccc(O)c([N+](=O)[O-])c3)c2c1
REMARK SMILES IDX 5 1 6 2 7 3 8 4 9 5 10 6 11 7 12 8 23 9 24 10 4 11 3 13 2 14
REMARK SMILES IDX 1 15 13 16 14 17 22 18 15 19 18 20 16 21 19 22 20 23 21 24
REMARK SMILES IDX 17 25
REMARK H PARENT 4 12 17 26
ROOT
ATOM      1  C   UNL     1      26.669   0.793  53.575  1.00  0.00    +0.059 A 
ATOM      2  C   UNL     1      27.439   1.670  52.812  1.00  0.00    +0.030 A 
ATOM      3  C   UNL     1      26.864   2.404  51.767  1.00  0.00    +0.031 A 
ATOM      4  C   UNL     1      25.524   2.283  51.434  1.00  0.00    +0.074 A 
ATOM      5  N   UNL     1      25.051   3.009  50.415  1.00  0.00    -0.236 NA
ATOM      6  C   UNL     1      23.759   2.850  50.104  1.00  0.00    +0.223 A 
ATOM      7  N   UNL     1      22.896   2.041  50.723  1.00  0.00    -0.236 NA
ATOM      8  C   UNL     1      23.387   1.329  51.763  1.00  0.00    +0.082 A 
ATOM      9  C   UNL     1      24.732   1.396  52.172  1.00  0.00    +0.029 A 
ATOM     10  C   UNL     1      25.322   0.643  53.226  1.00  0.00    +0.040 A 
ENDROOT
BRANCH   1  11
ATOM     11  N   UNL     1      27.215  -0.018  54.584  1.00  0.00    -0.260 N 
ATOM     12  H   UNL     1      27.117   0.322  55.533  1.00  0.00    +0.192 HD
BRANCH  11  13
ATOM     13  N   UNL     1      28.361  -0.680  54.342  1.00  0.00    -0.075 NA
ATOM     14  N   UNL     1      28.054  -1.614  53.579  1.00  0.00    -0.174 NA
ATOM     15  C   UNL     1      29.223  -2.419  53.218  1.00  0.00    +0.200 C 
ENDBRANCH  11  13
ENDBRANCH   1  11
BRANCH   8  16
ATOM     16  C   UNL     1      22.372   0.487  52.417  1.00  0.00    +0.008 A 
ATOM     17  C   UNL     1      22.688  -0.299  53.539  1.00  0.00    +0.015 A 
ATOM     18  C   UNL     1      21.046   0.482  51.951  1.00  0.00    +0.100 A 
ATOM     19  C   UNL     1      21.716  -1.084  54.165  1.00  0.00    +0.054 A 
ATOM     20  C   UNL     1      20.068  -0.305  52.583  1.00  0.00    +0.311 A 
ATOM     21  C   UNL     1      20.406  -1.093  53.690  1.00  0.00    +0.194 A 
BRANCH  20  22
ATOM     22  N   UNL     1      18.701  -0.286  52.059  1.00  0.00    +0.066 N 
ATOM     23  O   UNL     1      17.781  -0.547  52.852  1.00  0.00    -0.258 OA
ATOM     24  O   UNL     1      18.537  -0.021  50.861  1.00  0.00    -0.258 OA
ENDBRANCH  20  22
BRANCH  21  25
ATOM     25  O   UNL     1      19.542  -1.900  54.381  1.00  0.00    -0.502 OA
ATOM     26  H   UNL     1      18.895  -1.352  54.874  1.00  0.00    +0.293 HD
ENDBRANCH  21  25
ENDBRANCH   8  16
TORSDOF 5
ENDMDL
MODEL 8
REMARK VINA RESULT:    -7.549      3.687      5.675
REMARK INTER + INTRA:          -9.820
REMARK INTER:                  -8.895
REMARK INTRA:                  -0.926
REMARK UNBOUND:                -0.285
REMARK SMILES C/N=N/Nc1ccc2ncnc(-c3ccc(O)c([N+](=O)[O-])c3)c2c1
REMARK SMILES IDX 5 1 6 2 7 3 8 4 9 5 10 6 11 7 12 8 23 9 24 10 4 11 3 13 2 14
REMARK SMILES IDX 1 15 13 16 14 17 22 18 15 19 18 20 16 21 19 22 20 23 21 24
REMARK SMILES IDX 17 25
REMARK H PARENT 4 12 17 26
ROOT
ATOM      1  C   UNL     1      25.783   0.953  52.375  1.00  0.00    +0.059 A 
ATOM      2  C   UNL     1      26.179   0.200  53.479  1.00  0.00    +0.030 A 
ATOM      3  C   UNL     1      25.239  -0.500  54.245  1.00  0.00    +0.031 A 
ATOM      4  C   UNL     1      23.883  -0.464  53.956  1.00  0.00    +0.074 A 
ATOM      5  N   UNL     1      23.045  -1.150  54.741  1.00  0.00    -0.236 NA
ATOM      6  C   UNL     1      21.741  -1.074  54.450  1.00  0.00    +0.223 A 
ATOM      7  N   UNL     1      21.200  -0.386  53.441  1.00  0.00    -0.236 NA
ATOM      8  C   UNL     1      22.064   0.285  52.647  1.00  0.00    +0.082 A 
ATOM      9  C   UNL     1      23.455   0.298  52.864  1.00  0.00    +0.029 A 
ATOM     10  C   UNL     1      24.412   1.018  52.095  1.00  0.00    +0.040 A 
ENDROOT
BRANCH   1  11
ATOM     11  N   UNL     1      26.678   1.729  51.622  1.00  0.00    -0.260 N 
ATOM     12  H   UNL     1      27.648   1.706  51.916  1.00  0.00    +0.192 HD
BRANCH  11  13
ATOM     13  N   UNL     1      26.269   2.915  51.136  1.00  0.00    -0.075 NA
ATOM     14  N   UNL     1      26.850   3.048  50.043  1.00  0.00    -0.174 NA
ATOM     15  C   UNL     1      26.482   4.306  49.389  1.00  0.00    +0.200 C 
ENDBRANCH  11  13
ENDBRANCH   1  11
BRANCH   8  16
ATOM     16  C   UNL     1      21.401   0.992  51.539  1.00  0.00    +0.008 A 
ATOM     17  C   UNL     1      21.533   0.554  50.210  1.00  0.00    +0.015 A 
ATOM     18  C   UNL     1      20.583   2.106  51.796  1.00  0.00    +0.100 A 
ATOM     19  C   UNL     1      20.889   1.221  49.165  1.00  0.00    +0.054 A 
ATOM     20  C   UNL     1      19.931   2.773  50.745  1.00  0.00    +0.311 A 
ATOM     21  C   UNL     1      20.088   2.332  49.426  1.00  0.00    +0.194 A 
BRANCH  20  22
ATOM     22  N   UNL     1      19.096   3.934  51.058  1.00  0.00    +0.066 N 
ATOM     23  O   UNL     1      18.262   3.810  51.969  1.00  0.00    -0.258 OA
ATOM     24  O   UNL     1      19.259   4.968  50.396  1.00  0.00    -0.258 OA
ENDBRANCH  20  22
BRANCH  21  25
ATOM     25  O   UNL     1      19.509   2.902  48.325  1.00  0.00    -0.502 OA
ATOM     26  H   UNL     1      20.148   3.501  47.882  1.00  0.00    +0.293 HD
ENDBRANCH  21  25
ENDBRANCH   8  16
TORSDOF 5
ENDMDL
MODEL 9
REMARK VINA RESULT:    -7.524      2.150      4.767
REMARK INTER + INTRA:          -9.788
REMARK INTER:                  -9.368
REMARK INTRA:                  -0.421
REMARK UNBOUND:                -0.285
REMARK SMILES C/N=N/Nc1ccc2ncnc(-c3ccc(O)c([N+](=O)[O-])c3)c2c1
REMARK SMILES IDX 5 1 6 2 7 3 8 4 9 5 10 6 11 7 12 8 23 9 24 10 4 11 3 13 2 14
REMARK SMILES IDX 1 15 13 16 14 17 22 18 15 19 18 20 16 21 19 22 20 23 21 24
REMARK SMILES IDX 17 25
REMARK H PARENT 4 12 17 26
ROOT
ATOM      1  C   UNL     1      21.654   3.403  51.059  1.00  0.00    +0.059 A 
ATOM      2  C   UNL     1      21.908   4.251  49.982  1.00  0.00    +0.030 A 
ATOM      3  C   UNL     1      23.199   4.372  49.454  1.00  0.00    +0.031 A 
ATOM      4  C   UNL     1      24.276   3.675  49.980  1.00  0.00    +0.074 A 
ATOM      5  N   UNL     1      25.482   3.851  49.428  1.00  0.00    -0.236 NA
ATOM      6  C   UNL     1      26.504   3.183  49.975  1.00  0.00    +0.223 A 
ATOM      7  N   UNL     1      26.430   2.349  51.015  1.00  0.00    -0.236 NA
ATOM      8  C   UNL     1      25.201   2.168  51.547  1.00  0.00    +0.082 A 
ATOM      9  C   UNL     1      24.053   2.829  51.072  1.00  0.00    +0.029 A 
ATOM     10  C   UNL     1      22.742   2.719  51.614  1.00  0.00    +0.040 A 
ENDROOT
BRANCH   1  11
ATOM     11  N   UNL     1      20.393   3.305  51.668  1.00  0.00    -0.260 N 
ATOM     12  H   UNL     1      20.286   2.574  52.362  1.00  0.00    +0.192 HD
BRANCH  11  13
ATOM     13  N   UNL     1      19.290   3.544  50.935  1.00  0.00    -0.075 NA
ATOM     14  N   UNL     1      18.397   3.827  51.755  1.00  0.00    -0.174 NA
ATOM     15  C   UNL     1      17.130   4.128  51.086  1.00  0.00    +0.200 C 
ENDBRANCH  11  13
ENDBRANCH   1  11
BRANCH   8  16
ATOM     16  C   UNL     1      25.191   1.211  52.666  1.00  0.00    +0.008 A 
ATOM     17  C   UNL     1      24.149   0.281  52.823  1.00  0.00    +0.015 A 
ATOM     18  C   UNL     1      26.254   1.183  53.586  1.00  0.00    +0.100 A 
ATOM     19  C   UNL     1      24.153  -0.635  53.878  1.00  0.00    +0.054 A 
ATOM     20  C   UNL     1      26.260   0.259  54.644  1.00  0.00    +0.311 A 
ATOM     21  C   UNL     1      25.204  -0.650  54.793  1.00  0.00    +0.194 A 
BRANCH  20  22
ATOM     22  N   UNL     1      27.383   0.270  55.584  1.00  0.00    +0.066 N 
ATOM     23  O   UNL     1      28.487   0.639  55.151  1.00  0.00    -0.258 OA
ATOM     24  O   UNL     1      27.175  -0.093  56.749  1.00  0.00    -0.258 OA
ENDBRANCH  20  22
BRANCH  21  25
ATOM     25  O   UNL     1      25.101  -1.588  55.783  1.00  0.00    -0.502 OA
ATOM     26  H   UNL     1      24.299  -1.419  56.322  1.00  0.00    +0.293 HD
ENDBRANCH  21  25
ENDBRANCH   8  16
TORSDOF 5
ENDMDL
