REMARK SMILES Cc1cccc(N(C(=O)c2ccc(O)cc2)c2[nH]c(C)cc2C)c1
REMARK SMILES IDX 8 1 9 2 7 3 6 4 2 5 3 6 24 7 4 8 5 9 1 10 17 11 18 12 22 13
REMARK SMILES IDX 19 14 21 15 23 17 20 18 10 19 11 20 16 21 12 22 15 23 13 24
REMARK SMILES IDX 14 25
REMARK H PARENT 18 16 14 26
ROOT
ATOM      1  C   UNL     1       0.876  -1.202   0.125  1.00  0.00    +0.263 C 
ATOM      2  O   UNL     1       0.984  -2.323   0.631  1.00  0.00    -0.268 OA
ENDROOT
BRANCH   1   3
ATOM      3  N   UNL     1      -0.270  -0.388   0.233  1.00  0.00    -0.262 N 
BRANCH   3   4
ATOM      4  C   UNL     1      -1.556  -0.972   0.523  1.00  0.00    +0.051 A 
ATOM      5  C   UNL     1      -3.119  -2.853   0.315  1.00  0.00    -0.049 A 
ATOM      6  C   UNL     1      -4.080  -2.135   1.030  1.00  0.00    +0.003 A 
ATOM      7  C   UNL     1      -1.870  -2.262   0.061  1.00  0.00    +0.030 A 
ATOM      8  C   UNL     1      -3.786  -0.863   1.513  1.00  0.00    +0.002 A 
ATOM      9  C   UNL     1      -2.535  -0.290   1.266  1.00  0.00    +0.027 A 
ATOM     10  C   UNL     1      -3.430  -4.218  -0.222  1.00  0.00    +0.044 C 
ENDBRANCH   3   4
BRANCH   3  11
ATOM     11  C   UNL     1      -0.171   1.010   0.217  1.00  0.00    +0.120 A 
ATOM     12  N   UNL     1      -1.126   1.774  -0.424  1.00  0.00    -0.345 N 
ATOM     13  C   UNL     1       0.779   1.890   0.724  1.00  0.00    -0.008 A 
ATOM     14  C   UNL     1      -0.792   3.102  -0.385  1.00  0.00    +0.014 A 
ATOM     15  C   UNL     1       0.383   3.202   0.325  1.00  0.00    +0.028 A 
ATOM     16  H   UNL     1      -1.934   1.388  -0.893  1.00  0.00    +0.168 HD
ATOM     17  C   UNL     1       1.966   1.598   1.573  1.00  0.00    +0.048 C 
ATOM     18  C   UNL     1      -1.636   4.139  -1.025  1.00  0.00    +0.064 C 
ENDBRANCH   3  11
ENDBRANCH   1   3
BRANCH   1  19
ATOM     19  C   UNL     1       2.027  -0.754  -0.715  1.00  0.00    +0.041 A 
ATOM     20  C   UNL     1       3.323  -1.124  -0.321  1.00  0.00    +0.017 A 
ATOM     21  C   UNL     1       1.844  -0.061  -1.918  1.00  0.00    +0.017 A 
ATOM     22  C   UNL     1       4.428  -0.762  -1.096  1.00  0.00    +0.047 A 
ATOM     23  C   UNL     1       2.950   0.303  -2.690  1.00  0.00    +0.047 A 
ATOM     24  C   UNL     1       4.230  -0.046  -2.272  1.00  0.00    +0.115 A 
BRANCH  24  25
ATOM     25  O   UNL     1       5.277   0.328  -3.060  1.00  0.00    -0.508 OA
ATOM     26  H   UNL     1       6.101   0.009  -2.656  1.00  0.00    +0.293 HD
ENDBRANCH  24  25
ENDBRANCH   1  19
TORSDOF 5
