MODEL 1
REMARK VINA RESULT:    -9.036      0.000      0.000
REMARK INTER + INTRA:         -12.829
REMARK INTER:                 -11.942
REMARK INTRA:                  -0.887
REMARK UNBOUND:                -0.887
REMARK SMILES CN(C(=O)c1cccc(Cl)c1)c1ccc(-c2cc(O)ccc2[N+](=O)[O-])[nH]1
REMARK SMILES IDX 12 1 13 2 14 3 15 4 26 5 2 7 1 8 3 9 4 10 5 11 6 12 11 13
REMARK SMILES IDX 7 14 9 15 8 16 10 17 16 18 17 19 22 20 18 21 21 22 20 23
REMARK SMILES IDX 23 24 24 25 25 26 19 27
REMARK H PARENT 26 6 19 28
ROOT
ATOM      1  C   UNL     1      24.531   2.064  51.454  1.00  0.00    +0.113 A 
ATOM      2  C   UNL     1      23.794   1.463  52.454  1.00  0.00    +0.047 A 
ATOM      3  C   UNL     1      24.649   0.573  53.153  1.00  0.00    +0.031 A 
ATOM      4  C   UNL     1      25.900   0.632  52.565  1.00  0.00    +0.054 A 
ATOM      5  N   UNL     1      25.802   1.543  51.540  1.00  0.00    -0.341 N 
ATOM      6  H   UNL     1      26.543   1.800  50.895  1.00  0.00    +0.168 HD
ENDROOT
BRANCH   1   7
ATOM      7  N   UNL     1      24.157   3.019  50.494  1.00  0.00    -0.297 N 
ATOM      8  C   UNL     1      23.391   2.603  49.316  1.00  0.00    +0.155 C 
BRANCH   7   9
ATOM      9  C   UNL     1      24.537   4.359  50.712  1.00  0.00    +0.259 C 
ATOM     10  O   UNL     1      24.055   5.111  51.563  1.00  0.00    -0.269 OA
BRANCH   9  11
ATOM     11  C   UNL     1      25.581   4.949  49.849  1.00  0.00    +0.041 A 
ATOM     12  C   UNL     1      26.663   4.154  49.456  1.00  0.00    +0.014 A 
ATOM     13  C   UNL     1      25.518   6.299  49.490  1.00  0.00    +0.034 A 
ATOM     14  C   UNL     1      27.671   4.703  48.663  1.00  0.00    +0.002 A 
ATOM     15  C   UNL     1      26.531   6.835  48.698  1.00  0.00    +0.041 A 
ATOM     16  C   UNL     1      27.602   6.044  48.280  1.00  0.00    +0.020 A 
ATOM     17 Cl   UNL     1      26.460   8.490  48.234  1.00  0.00    -0.084 Cl
ENDBRANCH   9  11
ENDBRANCH   7   9
ENDBRANCH   1   7
BRANCH   4  18
ATOM     18  C   UNL     1      27.146  -0.072  52.877  1.00  0.00    +0.079 A 
ATOM     19  C   UNL     1      27.176  -1.474  52.783  1.00  0.00    +0.063 A 
ATOM     20  C   UNL     1      28.334   0.574  53.253  1.00  0.00    +0.278 A 
ATOM     21  C   UNL     1      28.353  -2.175  53.051  1.00  0.00    +0.116 A 
ATOM     22  C   UNL     1      29.520  -0.126  53.519  1.00  0.00    +0.090 A 
ATOM     23  C   UNL     1      29.521  -1.513  53.415  1.00  0.00    +0.053 A 
BRANCH  20  24
ATOM     24  N   UNL     1      28.372   2.011  53.419  1.00  0.00    +0.063 N 
ATOM     25  O   UNL     1      28.309   2.695  52.387  1.00  0.00    -0.258 OA
ATOM     26  O   UNL     1      28.512   2.445  54.569  1.00  0.00    -0.258 OA
ENDBRANCH  20  24
BRANCH  21  27
ATOM     27  O   UNL     1      28.403  -3.535  52.961  1.00  0.00    -0.508 OA
ATOM     28  H   UNL     1      28.326  -3.916  53.852  1.00  0.00    +0.293 HD
ENDBRANCH  21  27
ENDBRANCH   4  18
TORSDOF 6
ENDMDL
MODEL 2
REMARK VINA RESULT:    -8.952      1.226      1.692
REMARK INTER + INTRA:         -12.717
REMARK INTER:                 -11.740
REMARK INTRA:                  -0.978
REMARK UNBOUND:                -0.887
REMARK SMILES CN(C(=O)c1cccc(Cl)c1)c1ccc(-c2cc(O)ccc2[N+](=O)[O-])[nH]1
REMARK SMILES IDX 12 1 13 2 14 3 15 4 26 5 2 7 1 8 3 9 4 10 5 11 6 12 11 13
REMARK SMILES IDX 7 14 9 15 8 16 10 17 16 18 17 19 22 20 18 21 21 22 20 23
REMARK SMILES IDX 23 24 24 25 25 26 19 27
REMARK H PARENT 26 6 19 28
ROOT
ATOM      1  C   UNL     1      23.885   1.373  51.944  1.00  0.00    +0.113 A 
ATOM      2  C   UNL     1      23.348   0.587  52.944  1.00  0.00    +0.047 A 
ATOM      3  C   UNL     1      24.403  -0.163  53.524  1.00  0.00    +0.031 A 
ATOM      4  C   UNL     1      25.574   0.166  52.866  1.00  0.00    +0.054 A 
ATOM      5  N   UNL     1      25.233   1.099  51.915  1.00  0.00    -0.341 N 
ATOM      6  H   UNL     1      25.864   1.529  51.245  1.00  0.00    +0.168 HD
ENDROOT
BRANCH   1   7
ATOM      7  N   UNL     1      23.270   2.293  51.079  1.00  0.00    -0.297 N 
ATOM      8  C   UNL     1      22.511   1.807  49.923  1.00  0.00    +0.155 C 
BRANCH   7   9
ATOM      9  C   UNL     1      23.407   3.666  51.368  1.00  0.00    +0.259 C 
ATOM     10  O   UNL     1      22.959   4.237  52.365  1.00  0.00    -0.269 OA
BRANCH   9  11
ATOM     11  C   UNL     1      24.123   4.525  50.402  1.00  0.00    +0.041 A 
ATOM     12  C   UNL     1      23.443   5.601  49.820  1.00  0.00    +0.014 A 
ATOM     13  C   UNL     1      25.437   4.224  50.030  1.00  0.00    +0.034 A 
ATOM     14  C   UNL     1      24.095   6.406  48.887  1.00  0.00    +0.002 A 
ATOM     15  C   UNL     1      26.077   5.036  49.097  1.00  0.00    +0.041 A 
ATOM     16  C   UNL     1      25.416   6.126  48.529  1.00  0.00    +0.020 A 
ATOM     17 Cl   UNL     1      27.699   4.690  48.640  1.00  0.00    -0.084 Cl
ENDBRANCH   9  11
ENDBRANCH   7   9
ENDBRANCH   1   7
BRANCH   4  18
ATOM     18  C   UNL     1      26.948  -0.305  53.050  1.00  0.00    +0.079 A 
ATOM     19  C   UNL     1      27.193  -1.689  53.092  1.00  0.00    +0.063 A 
ATOM     20  C   UNL     1      28.056   0.549  53.172  1.00  0.00    +0.278 A 
ATOM     21  C   UNL     1      28.493  -2.173  53.242  1.00  0.00    +0.116 A 
ATOM     22  C   UNL     1      29.365   0.067  53.320  1.00  0.00    +0.090 A 
ATOM     23  C   UNL     1      29.578  -1.307  53.354  1.00  0.00    +0.053 A 
BRANCH  20  24
ATOM     24  N   UNL     1      27.882   1.985  53.187  1.00  0.00    +0.063 N 
ATOM     25  O   UNL     1      27.681   2.536  52.095  1.00  0.00    -0.258 OA
ATOM     26  O   UNL     1      27.996   2.558  54.278  1.00  0.00    -0.258 OA
ENDBRANCH  20  24
BRANCH  21  27
ATOM     27  O   UNL     1      28.751  -3.510  53.281  1.00  0.00    -0.508 OA
ATOM     28  H   UNL     1      29.547  -3.667  53.817  1.00  0.00    +0.293 HD
ENDBRANCH  21  27
ENDBRANCH   4  18
TORSDOF 6
ENDMDL
MODEL 3
REMARK VINA RESULT:    -8.863      3.320      5.115
REMARK INTER + INTRA:         -12.600
REMARK INTER:                 -12.024
REMARK INTRA:                  -0.575
REMARK UNBOUND:                -0.887
REMARK SMILES CN(C(=O)c1cccc(Cl)c1)c1ccc(-c2cc(O)ccc2[N+](=O)[O-])[nH]1
REMARK SMILES IDX 12 1 13 2 14 3 15 4 26 5 2 7 1 8 3 9 4 10 5 11 6 12 11 13
REMARK SMILES IDX 7 14 9 15 8 16 10 17 16 18 17 19 22 20 18 21 21 22 20 23
REMARK SMILES IDX 23 24 24 25 25 26 19 27
REMARK H PARENT 26 6 19 28
ROOT
ATOM      1  C   UNL     1      24.635   2.007  51.882  1.00  0.00    +0.113 A 
ATOM      2  C   UNL     1      24.657   2.512  53.166  1.00  0.00    +0.047 A 
ATOM      3  C   UNL     1      25.746   1.916  53.852  1.00  0.00    +0.031 A 
ATOM      4  C   UNL     1      26.375   1.045  52.981  1.00  0.00    +0.054 A 
ATOM      5  N   UNL     1      25.683   1.119  51.794  1.00  0.00    -0.341 N 
ATOM      6  H   UNL     1      25.877   0.583  50.954  1.00  0.00    +0.168 HD
ENDROOT
BRANCH   1   7
ATOM      7  N   UNL     1      23.766   2.276  50.811  1.00  0.00    -0.297 N 
ATOM      8  C   UNL     1      24.060   3.387  49.900  1.00  0.00    +0.155 C 
BRANCH   7   9
ATOM      9  C   UNL     1      22.635   1.451  50.655  1.00  0.00    +0.259 C 
ATOM     10  O   UNL     1      22.170   1.068  49.578  1.00  0.00    -0.269 OA
BRANCH   9  11
ATOM     11  C   UNL     1      21.907   1.009  51.863  1.00  0.00    +0.041 A 
ATOM     12  C   UNL     1      20.903   1.831  52.387  1.00  0.00    +0.014 A 
ATOM     13  C   UNL     1      22.267  -0.179  52.507  1.00  0.00    +0.034 A 
ATOM     14  C   UNL     1      20.224   1.441  53.541  1.00  0.00    +0.002 A 
ATOM     15  C   UNL     1      21.581  -0.557  53.658  1.00  0.00    +0.041 A 
ATOM     16  C   UNL     1      20.561   0.243  54.175  1.00  0.00    +0.020 A 
ATOM     17 Cl   UNL     1      22.000  -2.024  54.454  1.00  0.00    -0.084 Cl
ENDBRANCH   9  11
ENDBRANCH   7   9
ENDBRANCH   1   7
BRANCH   4  18
ATOM     18  C   UNL     1      27.538   0.174  53.161  1.00  0.00    +0.079 A 
ATOM     19  C   UNL     1      27.389  -1.209  52.960  1.00  0.00    +0.063 A 
ATOM     20  C   UNL     1      28.816   0.641  53.510  1.00  0.00    +0.278 A 
ATOM     21  C   UNL     1      28.483  -2.066  53.100  1.00  0.00    +0.116 A 
ATOM     22  C   UNL     1      29.918  -0.216  53.649  1.00  0.00    +0.090 A 
ATOM     23  C   UNL     1      29.742  -1.580  53.440  1.00  0.00    +0.053 A 
BRANCH  20  24
ATOM     24  N   UNL     1      29.039   2.044  53.781  1.00  0.00    +0.063 N 
ATOM     25  O   UNL     1      29.309   2.351  54.951  1.00  0.00    -0.258 OA
ATOM     26  O   UNL     1      28.897   2.833  52.839  1.00  0.00    -0.258 OA
ENDBRANCH  20  24
BRANCH  21  27
ATOM     27  O   UNL     1      28.360  -3.409  52.905  1.00  0.00    -0.508 OA
ATOM     28  H   UNL     1      28.126  -3.834  53.748  1.00  0.00    +0.293 HD
ENDBRANCH  21  27
ENDBRANCH   4  18
TORSDOF 6
ENDMDL
MODEL 4
REMARK VINA RESULT:    -8.512      1.905      3.266
REMARK INTER + INTRA:         -12.135
REMARK INTER:                 -11.300
REMARK INTRA:                  -0.835
REMARK UNBOUND:                -0.887
REMARK SMILES CN(C(=O)c1cccc(Cl)c1)c1ccc(-c2cc(O)ccc2[N+](=O)[O-])[nH]1
REMARK SMILES IDX 12 1 13 2 14 3 15 4 26 5 2 7 1 8 3 9 4 10 5 11 6 12 11 13
REMARK SMILES IDX 7 14 9 15 8 16 10 17 16 18 17 19 22 20 18 21 21 22 20 23
REMARK SMILES IDX 23 24 24 25 25 26 19 27
REMARK H PARENT 26 6 19 28
ROOT
ATOM      1  C   UNL     1      25.410   2.648  51.627  1.00  0.00    +0.113 A 
ATOM      2  C   UNL     1      24.663   2.315  52.739  1.00  0.00    +0.047 A 
ATOM      3  C   UNL     1      25.379   1.334  53.470  1.00  0.00    +0.031 A 
ATOM      4  C   UNL     1      26.555   1.069  52.792  1.00  0.00    +0.054 A 
ATOM      5  N   UNL     1      26.550   1.879  51.680  1.00  0.00    -0.341 N 
ATOM      6  H   UNL     1      27.265   1.909  50.959  1.00  0.00    +0.168 HD
ENDROOT
BRANCH   1   7
ATOM      7  N   UNL     1      25.151   3.565  50.595  1.00  0.00    -0.297 N 
ATOM      8  C   UNL     1      26.238   3.981  49.704  1.00  0.00    +0.155 C 
BRANCH   7   9
ATOM      9  C   UNL     1      23.835   4.050  50.458  1.00  0.00    +0.259 C 
ATOM     10  O   UNL     1      23.360   5.016  51.059  1.00  0.00    -0.269 OA
BRANCH   9  11
ATOM     11  C   UNL     1      22.913   3.348  49.539  1.00  0.00    +0.041 A 
ATOM     12  C   UNL     1      22.296   2.168  49.971  1.00  0.00    +0.014 A 
ATOM     13  C   UNL     1      22.718   3.823  48.239  1.00  0.00    +0.034 A 
ATOM     14  C   UNL     1      21.445   1.480  49.108  1.00  0.00    +0.002 A 
ATOM     15  C   UNL     1      21.865   3.126  47.387  1.00  0.00    +0.041 A 
ATOM     16  C   UNL     1      21.225   1.962  47.815  1.00  0.00    +0.020 A 
ATOM     17 Cl   UNL     1      21.600   3.705  45.789  1.00  0.00    -0.084 Cl
ENDBRANCH   9  11
ENDBRANCH   7   9
ENDBRANCH   1   7
BRANCH   4  18
ATOM     18  C   UNL     1      27.654   0.149  53.091  1.00  0.00    +0.079 A 
ATOM     19  C   UNL     1      27.479  -1.223  52.841  1.00  0.00    +0.063 A 
ATOM     20  C   UNL     1      28.897   0.557  53.602  1.00  0.00    +0.278 A 
ATOM     21  C   UNL     1      28.514  -2.126  53.093  1.00  0.00    +0.116 A 
ATOM     22  C   UNL     1      29.940  -0.346  53.853  1.00  0.00    +0.090 A 
ATOM     23  C   UNL     1      29.740  -1.698  53.593  1.00  0.00    +0.053 A 
BRANCH  20  24
ATOM     24  N   UNL     1      29.139   1.945  53.931  1.00  0.00    +0.063 N 
ATOM     25  O   UNL     1      29.401   2.202  55.114  1.00  0.00    -0.258 OA
ATOM     26  O   UNL     1      29.019   2.772  53.018  1.00  0.00    -0.258 OA
ENDBRANCH  20  24
BRANCH  21  27
ATOM     27  O   UNL     1      28.365  -3.459  52.854  1.00  0.00    -0.508 OA
ATOM     28  H   UNL     1      27.484  -3.741  53.154  1.00  0.00    +0.293 HD
ENDBRANCH  21  27
ENDBRANCH   4  18
TORSDOF 6
ENDMDL
MODEL 5
REMARK VINA RESULT:    -8.455      1.538      2.015
REMARK INTER + INTRA:         -12.060
REMARK INTER:                 -10.985
REMARK INTRA:                  -1.075
REMARK UNBOUND:                -0.887
REMARK SMILES CN(C(=O)c1cccc(Cl)c1)c1ccc(-c2cc(O)ccc2[N+](=O)[O-])[nH]1
REMARK SMILES IDX 12 1 13 2 14 3 15 4 26 5 2 7 1 8 3 9 4 10 5 11 6 12 11 13
REMARK SMILES IDX 7 14 9 15 8 16 10 17 16 18 17 19 22 20 18 21 21 22 20 23
REMARK SMILES IDX 23 24 24 25 25 26 19 27
REMARK H PARENT 26 6 19 28
ROOT
ATOM      1  C   UNL     1      24.967   2.288  51.775  1.00  0.00    +0.113 A 
ATOM      2  C   UNL     1      24.508   2.208  53.075  1.00  0.00    +0.047 A 
ATOM      3  C   UNL     1      25.399   1.378  53.802  1.00  0.00    +0.031 A 
ATOM      4  C   UNL     1      26.390   0.952  52.936  1.00  0.00    +0.054 A 
ATOM      5  N   UNL     1      26.106   1.518  51.715  1.00  0.00    -0.341 N 
ATOM      6  H   UNL     1      26.631   1.384  50.856  1.00  0.00    +0.168 HD
ENDROOT
BRANCH   1   7
ATOM      7  N   UNL     1      24.451   2.983  50.668  1.00  0.00    -0.297 N 
ATOM      8  C   UNL     1      23.139   2.616  50.128  1.00  0.00    +0.155 C 
BRANCH   7   9
ATOM      9  C   UNL     1      25.229   4.022  50.119  1.00  0.00    +0.259 C 
ATOM     10  O   UNL     1      26.412   3.930  49.780  1.00  0.00    -0.269 OA
BRANCH   9  11
ATOM     11  C   UNL     1      24.611   5.353  49.944  1.00  0.00    +0.041 A 
ATOM     12  C   UNL     1      24.247   6.085  51.079  1.00  0.00    +0.014 A 
ATOM     13  C   UNL     1      24.337   5.839  48.662  1.00  0.00    +0.034 A 
ATOM     14  C   UNL     1      23.639   7.332  50.932  1.00  0.00    +0.002 A 
ATOM     15  C   UNL     1      23.730   7.085  48.528  1.00  0.00    +0.041 A 
ATOM     16  C   UNL     1      23.385   7.835  49.653  1.00  0.00    +0.020 A 
ATOM     17 Cl   UNL     1      23.400   7.705  46.957  1.00  0.00    -0.084 Cl
ENDBRANCH   9  11
ENDBRANCH   7   9
ENDBRANCH   1   7
BRANCH   4  18
ATOM     18  C   UNL     1      27.551   0.085  53.150  1.00  0.00    +0.079 A 
ATOM     19  C   UNL     1      27.418  -1.296  52.924  1.00  0.00    +0.063 A 
ATOM     20  C   UNL     1      28.810   0.554  53.557  1.00  0.00    +0.278 A 
ATOM     21  C   UNL     1      28.510  -2.148  53.097  1.00  0.00    +0.116 A 
ATOM     22  C   UNL     1      29.911  -0.299  53.728  1.00  0.00    +0.090 A 
ATOM     23  C   UNL     1      29.752  -1.661  53.494  1.00  0.00    +0.053 A 
BRANCH  20  24
ATOM     24  N   UNL     1      29.015   1.954  53.857  1.00  0.00    +0.063 N 
ATOM     25  O   UNL     1      28.815   2.758  52.935  1.00  0.00    -0.258 OA
ATOM     26  O   UNL     1      29.418   2.238  54.992  1.00  0.00    -0.258 OA
ENDBRANCH  20  24
BRANCH  21  27
ATOM     27  O   UNL     1      28.403  -3.490  52.879  1.00  0.00    -0.508 OA
ATOM     28  H   UNL     1      27.475  -3.710  52.692  1.00  0.00    +0.293 HD
ENDBRANCH  21  27
ENDBRANCH   4  18
TORSDOF 6
ENDMDL
MODEL 6
REMARK VINA RESULT:    -8.443      3.820      5.669
REMARK INTER + INTRA:         -12.045
REMARK INTER:                 -11.515
REMARK INTRA:                  -0.529
REMARK UNBOUND:                -0.887
REMARK SMILES CN(C(=O)c1cccc(Cl)c1)c1ccc(-c2cc(O)ccc2[N+](=O)[O-])[nH]1
REMARK SMILES IDX 12 1 13 2 14 3 15 4 26 5 2 7 1 8 3 9 4 10 5 11 6 12 11 13
REMARK SMILES IDX 7 14 9 15 8 16 10 17 16 18 17 19 22 20 18 21 21 22 20 23
REMARK SMILES IDX 23 24 24 25 25 26 19 27
REMARK H PARENT 26 6 19 28
ROOT
ATOM      1  C   UNL     1      23.127  -0.101  53.106  1.00  0.00    +0.113 A 
ATOM      2  C   UNL     1      23.421   0.932  52.238  1.00  0.00    +0.047 A 
ATOM      3  C   UNL     1      24.828   0.970  52.064  1.00  0.00    +0.031 A 
ATOM      4  C   UNL     1      25.382  -0.036  52.835  1.00  0.00    +0.054 A 
ATOM      5  N   UNL     1      24.330  -0.670  53.455  1.00  0.00    -0.341 N 
ATOM      6  H   UNL     1      24.400  -1.442  54.111  1.00  0.00    +0.168 HD
ENDROOT
BRANCH   1   7
ATOM      7  N   UNL     1      21.892  -0.557  53.595  1.00  0.00    -0.297 N 
ATOM      8  C   UNL     1      21.754  -1.949  54.032  1.00  0.00    +0.155 C 
BRANCH   7   9
ATOM      9  C   UNL     1      20.823   0.361  53.649  1.00  0.00    +0.259 C 
ATOM     10  O   UNL     1      20.615   1.166  54.560  1.00  0.00    -0.269 OA
BRANCH   9  11
ATOM     11  C   UNL     1      19.838   0.367  52.547  1.00  0.00    +0.041 A 
ATOM     12  C   UNL     1      18.726  -0.478  52.628  1.00  0.00    +0.014 A 
ATOM     13  C   UNL     1      20.054   1.158  51.414  1.00  0.00    +0.034 A 
ATOM     14  C   UNL     1      17.800  -0.503  51.586  1.00  0.00    +0.002 A 
ATOM     15  C   UNL     1      19.123   1.123  50.379  1.00  0.00    +0.041 A 
ATOM     16  C   UNL     1      17.997   0.303  50.461  1.00  0.00    +0.020 A 
ATOM     17 Cl   UNL     1      19.365   2.102  48.985  1.00  0.00    -0.084 Cl
ENDBRANCH   9  11
ENDBRANCH   7   9
ENDBRANCH   1   7
BRANCH   4  18
ATOM     18  C   UNL     1      26.774  -0.443  53.033  1.00  0.00    +0.079 A 
ATOM     19  C   UNL     1      27.085  -1.814  53.053  1.00  0.00    +0.063 A 
ATOM     20  C   UNL     1      27.837   0.461  53.189  1.00  0.00    +0.278 A 
ATOM     21  C   UNL     1      28.405  -2.237  53.216  1.00  0.00    +0.116 A 
ATOM     22  C   UNL     1      29.165   0.041  53.350  1.00  0.00    +0.090 A 
ATOM     23  C   UNL     1      29.444  -1.322  53.362  1.00  0.00    +0.053 A 
BRANCH  20  24
ATOM     24  N   UNL     1      27.593   1.887  53.228  1.00  0.00    +0.063 N 
ATOM     25  O   UNL     1      27.838   2.525  52.194  1.00  0.00    -0.258 OA
ATOM     26  O   UNL     1      27.206   2.366  54.301  1.00  0.00    -0.258 OA
ENDBRANCH  20  24
BRANCH  21  27
ATOM     27  O   UNL     1      28.728  -3.561  53.235  1.00  0.00    -0.508 OA
ATOM     28  H   UNL     1      28.433  -3.950  54.075  1.00  0.00    +0.293 HD
ENDBRANCH  21  27
ENDBRANCH   4  18
TORSDOF 6
ENDMDL
MODEL 7
REMARK VINA RESULT:    -8.199      3.684      5.918
REMARK INTER + INTRA:         -11.722
REMARK INTER:                 -10.574
REMARK INTRA:                  -1.148
REMARK UNBOUND:                -0.887
REMARK SMILES CN(C(=O)c1cccc(Cl)c1)c1ccc(-c2cc(O)ccc2[N+](=O)[O-])[nH]1
REMARK SMILES IDX 12 1 13 2 14 3 15 4 26 5 2 7 1 8 3 9 4 10 5 11 6 12 11 13
REMARK SMILES IDX 7 14 9 15 8 16 10 17 16 18 17 19 22 20 18 21 21 22 20 23
REMARK SMILES IDX 23 24 24 25 25 26 19 27
REMARK H PARENT 26 6 19 28
ROOT
ATOM      1  C   UNL     1      24.152   2.571  51.088  1.00  0.00    +0.113 A 
ATOM      2  C   UNL     1      25.092   3.033  50.188  1.00  0.00    +0.047 A 
ATOM      3  C   UNL     1      26.377   2.703  50.690  1.00  0.00    +0.031 A 
ATOM      4  C   UNL     1      26.209   2.050  51.898  1.00  0.00    +0.054 A 
ATOM      5  N   UNL     1      24.853   1.983  52.115  1.00  0.00    -0.341 N 
ATOM      6  H   UNL     1      24.397   1.582  52.929  1.00  0.00    +0.168 HD
ENDROOT
BRANCH   1   7
ATOM      7  N   UNL     1      22.749   2.640  51.056  1.00  0.00    -0.297 N 
ATOM      8  C   UNL     1      22.072   3.861  51.502  1.00  0.00    +0.155 C 
BRANCH   7   9
ATOM      9  C   UNL     1      22.044   1.515  50.584  1.00  0.00    +0.259 C 
ATOM     10  O   UNL     1      22.024   1.118  49.416  1.00  0.00    -0.269 OA
BRANCH   9  11
ATOM     11  C   UNL     1      21.230   0.736  51.541  1.00  0.00    +0.041 A 
ATOM     12  C   UNL     1      19.843   0.683  51.364  1.00  0.00    +0.014 A 
ATOM     13  C   UNL     1      21.834   0.120  52.642  1.00  0.00    +0.034 A 
ATOM     14  C   UNL     1      19.057  -0.026  52.272  1.00  0.00    +0.002 A 
ATOM     15  C   UNL     1      21.038  -0.585  53.541  1.00  0.00    +0.041 A 
ATOM     16  C   UNL     1      19.657  -0.665  53.360  1.00  0.00    +0.020 A 
ATOM     17 Cl   UNL     1      21.767  -1.363  54.892  1.00  0.00    -0.084 Cl
ENDBRANCH   9  11
ENDBRANCH   7   9
ENDBRANCH   1   7
BRANCH   4  18
ATOM     18  C   UNL     1      27.186   1.498  52.838  1.00  0.00    +0.079 A 
ATOM     19  C   UNL     1      28.171   2.347  53.373  1.00  0.00    +0.063 A 
ATOM     20  C   UNL     1      27.192   0.158  53.260  1.00  0.00    +0.278 A 
ATOM     21  C   UNL     1      29.103   1.858  54.290  1.00  0.00    +0.116 A 
ATOM     22  C   UNL     1      28.125  -0.336  54.183  1.00  0.00    +0.090 A 
ATOM     23  C   UNL     1      29.086   0.528  54.699  1.00  0.00    +0.053 A 
BRANCH  20  24
ATOM     24  N   UNL     1      26.242  -0.790  52.719  1.00  0.00    +0.063 N 
ATOM     25  O   UNL     1      25.128  -0.835  53.259  1.00  0.00    -0.258 OA
ATOM     26  O   UNL     1      26.629  -1.514  51.793  1.00  0.00    -0.258 OA
ENDBRANCH  20  24
BRANCH  21  27
ATOM     27  O   UNL     1      30.063   2.666  54.822  1.00  0.00    -0.508 OA
ATOM     28  H   UNL     1      30.405   3.255  54.129  1.00  0.00    +0.293 HD
ENDBRANCH  21  27
ENDBRANCH   4  18
TORSDOF 6
ENDMDL
MODEL 8
REMARK VINA RESULT:    -8.095      4.534      6.359
REMARK INTER + INTRA:         -11.585
REMARK INTER:                 -10.722
REMARK INTRA:                  -0.863
REMARK UNBOUND:                -0.887
REMARK SMILES CN(C(=O)c1cccc(Cl)c1)c1ccc(-c2cc(O)ccc2[N+](=O)[O-])[nH]1
REMARK SMILES IDX 12 1 13 2 14 3 15 4 26 5 2 7 1 8 3 9 4 10 5 11 6 12 11 13
REMARK SMILES IDX 7 14 9 15 8 16 10 17 16 18 17 19 22 20 18 21 21 22 20 23
REMARK SMILES IDX 23 24 24 25 25 26 19 27
REMARK H PARENT 26 6 19 28
ROOT
ATOM      1  C   UNL     1      22.663   0.483  52.591  1.00  0.00    +0.113 A 
ATOM      2  C   UNL     1      22.478  -0.224  53.763  1.00  0.00    +0.047 A 
ATOM      3  C   UNL     1      23.743  -0.699  54.192  1.00  0.00    +0.031 A 
ATOM      4  C   UNL     1      24.690  -0.284  53.273  1.00  0.00    +0.054 A 
ATOM      5  N   UNL     1      24.010   0.431  52.314  1.00  0.00    -0.341 N 
ATOM      6  H   UNL     1      24.415   0.854  51.484  1.00  0.00    +0.168 HD
ENDROOT
BRANCH   1   7
ATOM      7  N   UNL     1      21.737   1.153  51.774  1.00  0.00    -0.297 N 
ATOM      8  C   UNL     1      22.073   1.433  50.375  1.00  0.00    +0.155 C 
BRANCH   7   9
ATOM      9  C   UNL     1      20.504   1.528  52.344  1.00  0.00    +0.259 C 
ATOM     10  O   UNL     1      20.302   2.545  53.012  1.00  0.00    -0.269 OA
BRANCH   9  11
ATOM     11  C   UNL     1      19.339   0.636  52.163  1.00  0.00    +0.041 A 
ATOM     12  C   UNL     1      18.399   0.943  51.173  1.00  0.00    +0.014 A 
ATOM     13  C   UNL     1      19.150  -0.456  53.015  1.00  0.00    +0.034 A 
ATOM     14  C   UNL     1      17.281   0.128  51.006  1.00  0.00    +0.002 A 
ATOM     15  C   UNL     1      18.028  -1.263  52.838  1.00  0.00    +0.041 A 
ATOM     16  C   UNL     1      17.098  -0.980  51.837  1.00  0.00    +0.020 A 
ATOM     17 Cl   UNL     1      17.788  -2.621  53.867  1.00  0.00    -0.084 Cl
ENDBRANCH   9  11
ENDBRANCH   7   9
ENDBRANCH   1   7
BRANCH   4  18
ATOM     18  C   UNL     1      26.139  -0.493  53.219  1.00  0.00    +0.079 A 
ATOM     19  C   UNL     1      26.635  -1.807  53.189  1.00  0.00    +0.063 A 
ATOM     20  C   UNL     1      27.077   0.552  53.179  1.00  0.00    +0.278 A 
ATOM     21  C   UNL     1      28.009  -2.042  53.115  1.00  0.00    +0.116 A 
ATOM     22  C   UNL     1      28.458   0.320  53.102  1.00  0.00    +0.090 A 
ATOM     23  C   UNL     1      28.920  -0.992  53.069  1.00  0.00    +0.053 A 
BRANCH  20  24
ATOM     24  N   UNL     1      26.648   1.931  53.256  1.00  0.00    +0.063 N 
ATOM     25  O   UNL     1      26.566   2.429  54.388  1.00  0.00    -0.258 OA
ATOM     26  O   UNL     1      26.351   2.492  52.193  1.00  0.00    -0.258 OA
ENDBRANCH  20  24
BRANCH  21  27
ATOM     27  O   UNL     1      28.510  -3.310  53.080  1.00  0.00    -0.508 OA
ATOM     28  H   UNL     1      29.334  -3.341  53.594  1.00  0.00    +0.293 HD
ENDBRANCH  21  27
ENDBRANCH   4  18
TORSDOF 6
ENDMDL
MODEL 9
REMARK VINA RESULT:    -7.844      4.376      7.609
REMARK INTER + INTRA:         -11.253
REMARK INTER:                 -10.057
REMARK INTRA:                  -1.196
REMARK UNBOUND:                -0.887
REMARK SMILES CN(C(=O)c1cccc(Cl)c1)c1ccc(-c2cc(O)ccc2[N+](=O)[O-])[nH]1
REMARK SMILES IDX 12 1 13 2 14 3 15 4 26 5 2 7 1 8 3 9 4 10 5 11 6 12 11 13
REMARK SMILES IDX 7 14 9 15 8 16 10 17 16 18 17 19 22 20 18 21 21 22 20 23
REMARK SMILES IDX 23 24 24 25 25 26 19 27
REMARK H PARENT 26 6 19 28
ROOT
ATOM      1  C   UNL     1      21.173   1.822  49.981  1.00  0.00    +0.113 A 
ATOM      2  C   UNL     1      21.361   1.379  48.687  1.00  0.00    +0.047 A 
ATOM      3  C   UNL     1      22.431   2.119  48.122  1.00  0.00    +0.031 A 
ATOM      4  C   UNL     1      22.881   3.015  49.076  1.00  0.00    +0.054 A 
ATOM      5  N   UNL     1      22.104   2.813  50.193  1.00  0.00    -0.341 N 
ATOM      6  H   UNL     1      22.164   3.330  51.065  1.00  0.00    +0.168 HD
ENDROOT
BRANCH   1   7
ATOM      7  N   UNL     1      20.252   1.413  50.960  1.00  0.00    -0.297 N 
ATOM      8  C   UNL     1      19.025   0.719  50.557  1.00  0.00    +0.155 C 
BRANCH   7   9
ATOM      9  C   UNL     1      20.555   1.688  52.308  1.00  0.00    +0.259 C 
ATOM     10  O   UNL     1      20.259   2.721  52.914  1.00  0.00    -0.269 OA
BRANCH   9  11
ATOM     11  C   UNL     1      21.311   0.682  53.084  1.00  0.00    +0.041 A 
ATOM     12  C   UNL     1      20.612  -0.182  53.935  1.00  0.00    +0.014 A 
ATOM     13  C   UNL     1      22.707   0.644  53.017  1.00  0.00    +0.034 A 
ATOM     14  C   UNL     1      21.312  -1.119  54.693  1.00  0.00    +0.002 A 
ATOM     15  C   UNL     1      23.395  -0.296  53.780  1.00  0.00    +0.041 A 
ATOM     16  C   UNL     1      22.706  -1.180  54.612  1.00  0.00    +0.020 A 
ATOM     17 Cl   UNL     1      25.112  -0.367  53.696  1.00  0.00    -0.084 Cl
ENDBRANCH   9  11
ENDBRANCH   7   9
ENDBRANCH   1   7
BRANCH   4  18
ATOM     18  C   UNL     1      23.951   4.014  49.031  1.00  0.00    +0.079 A 
ATOM     19  C   UNL     1      25.252   3.634  49.401  1.00  0.00    +0.063 A 
ATOM     20  C   UNL     1      23.760   5.343  48.619  1.00  0.00    +0.278 A 
ATOM     21  C   UNL     1      26.300   4.555  49.348  1.00  0.00    +0.116 A 
ATOM     22  C   UNL     1      24.810   6.271  48.561  1.00  0.00    +0.090 A 
ATOM     23  C   UNL     1      26.089   5.866  48.929  1.00  0.00    +0.053 A 
BRANCH  20  24
ATOM     24  N   UNL     1      22.441   5.825  48.268  1.00  0.00    +0.063 N 
ATOM     25  O   UNL     1      21.597   5.852  49.175  1.00  0.00    -0.258 OA
ATOM     26  O   UNL     1      22.245   6.126  47.085  1.00  0.00    -0.258 OA
ENDBRANCH  20  24
BRANCH  21  27
ATOM     27  O   UNL     1      27.569   4.205  49.699  1.00  0.00    -0.508 OA
ATOM     28  H   UNL     1      27.860   3.460  49.146  1.00  0.00    +0.293 HD
ENDBRANCH  21  27
ENDBRANCH   4  18
TORSDOF 6
ENDMDL
