MODEL 1
REMARK VINA RESULT:    -7.877      0.000      0.000
REMARK INTER + INTRA:          -9.878
REMARK INTER:                  -9.488
REMARK INTRA:                  -0.390
REMARK UNBOUND:                -0.390
REMARK SMILES N#CC(C#N)=C(C#N)C(N)=Cc1ccc(-c2cccc(Br)c2)[nH]1
REMARK SMILES IDX 12 1 13 2 14 3 15 4 23 5 11 7 9 8 6 9 1 10 2 11 3 12 4 13
REMARK SMILES IDX 5 14 7 15 8 16 10 17 16 20 17 21 22 22 18 23 20 24 19 25
REMARK SMILES IDX 21 26
REMARK H PARENT 23 6 10 18 10 19
ROOT
ATOM      1  C   UNL     1      23.833   1.459  52.925  1.00  0.00    +0.041 A 
ATOM      2  C   UNL     1      23.288   2.592  52.358  1.00  0.00    +0.028 A 
ATOM      3  C   UNL     1      21.912   2.337  52.134  1.00  0.00    +0.029 A 
ATOM      4  C   UNL     1      21.637   1.045  52.548  1.00  0.00    +0.046 A 
ATOM      5  N   UNL     1      22.827   0.528  53.021  1.00  0.00    -0.355 N 
ATOM      6  H   UNL     1      22.923  -0.393  53.427  1.00  0.00    +0.167 HD
ENDROOT
BRANCH   1   7
ATOM      7  C   UNL     1      25.128   1.088  53.365  1.00  0.00    +0.053 C 
ATOM      8  C   UNL     1      26.227   1.147  52.578  1.00  0.00    +0.054 C 
BRANCH   8   9
ATOM      9  C   UNL     1      27.532   0.729  53.134  1.00  0.00    +0.103 C 
ATOM     10  N   UNL     1      26.545  -2.420  52.081  1.00  0.00    -0.192 NA
ATOM     11  C   UNL     1      27.215  -1.596  52.548  1.00  0.00    +0.112 C 
ATOM     12  C   UNL     1      27.995  -0.541  53.099  1.00  0.00    +0.149 C 
ATOM     13  C   UNL     1      29.268  -0.891  53.632  1.00  0.00    +0.112 C 
ATOM     14  N   UNL     1      30.302  -1.179  54.073  1.00  0.00    -0.192 NA
ATOM     15  C   UNL     1      28.328   1.770  53.716  1.00  0.00    +0.103 C 
ATOM     16  N   UNL     1      28.953   2.610  54.216  1.00  0.00    -0.192 NA
ENDBRANCH   8   9
BRANCH   8  17
ATOM     17  N   UNL     1      26.251   1.685  51.294  1.00  0.00    -0.398 N 
ATOM     18  H   UNL     1      25.451   2.300  51.121  1.00  0.00    +0.156 HD
ATOM     19  H   UNL     1      27.077   2.275  51.164  1.00  0.00    +0.156 HD
ENDBRANCH   8  17
ENDBRANCH   1   7
BRANCH   4  20
ATOM     20  C   UNL     1      20.380   0.293  52.551  1.00  0.00    -0.001 A 
ATOM     21  C   UNL     1      20.071  -0.599  53.589  1.00  0.00    +0.010 A 
ATOM     22  C   UNL     1      19.464   0.450  51.503  1.00  0.00    +0.026 A 
ATOM     23  C   UNL     1      18.870  -1.312  53.584  1.00  0.00    +0.002 A 
ATOM     24  C   UNL     1      18.264  -0.264  51.504  1.00  0.00    +0.018 A 
ATOM     25  C   UNL     1      17.962  -1.144  52.540  1.00  0.00    +0.016 A 
ATOM     26 Br   UNL     1      17.036  -0.033  50.084  1.00  0.00    -0.051 Br
ENDBRANCH   4  20
TORSDOF 4
ENDMDL
MODEL 2
REMARK VINA RESULT:    -7.825      0.639      2.152
REMARK INTER + INTRA:          -9.816
REMARK INTER:                  -9.602
REMARK INTRA:                  -0.215
REMARK UNBOUND:                -0.390
REMARK SMILES N#CC(C#N)=C(C#N)C(N)=Cc1ccc(-c2cccc(Br)c2)[nH]1
REMARK SMILES IDX 12 1 13 2 14 3 15 4 23 5 11 7 9 8 6 9 1 10 2 11 3 12 4 13
REMARK SMILES IDX 5 14 7 15 8 16 10 17 16 20 17 21 22 22 18 23 20 24 19 25
REMARK SMILES IDX 21 26
REMARK H PARENT 23 6 10 18 10 19
ROOT
ATOM      1  C   UNL     1      23.855   0.690  53.076  1.00  0.00    +0.041 A 
ATOM      2  C   UNL     1      23.466   1.986  52.811  1.00  0.00    +0.028 A 
ATOM      3  C   UNL     1      22.066   1.976  52.594  1.00  0.00    +0.029 A 
ATOM      4  C   UNL     1      21.618   0.670  52.710  1.00  0.00    +0.046 A 
ATOM      5  N   UNL     1      22.730  -0.096  52.997  1.00  0.00    -0.355 N 
ATOM      6  H   UNL     1      22.702  -1.092  53.174  1.00  0.00    +0.167 HD
ENDROOT
BRANCH   1   7
ATOM      7  C   UNL     1      25.091   0.057  53.361  1.00  0.00    +0.053 C 
ATOM      8  C   UNL     1      26.196   0.204  52.595  1.00  0.00    +0.054 C 
BRANCH   8   9
ATOM      9  C   UNL     1      27.436  -0.507  52.978  1.00  0.00    +0.103 C 
ATOM     10  N   UNL     1      28.472   2.635  54.005  1.00  0.00    -0.192 NA
ATOM     11  C   UNL     1      28.512   1.491  53.813  1.00  0.00    +0.112 C 
ATOM     12  C   UNL     1      28.499   0.091  53.562  1.00  0.00    +0.149 C 
ATOM     13  C   UNL     1      29.663  -0.642  53.929  1.00  0.00    +0.112 C 
ATOM     14  N   UNL     1      30.616  -1.235  54.221  1.00  0.00    -0.192 NA
ATOM     15  C   UNL     1      27.457  -1.916  52.713  1.00  0.00    +0.103 C 
ATOM     16  N   UNL     1      27.481  -3.049  52.466  1.00  0.00    -0.192 NA
ENDBRANCH   8   9
BRANCH   8  17
ATOM     17  N   UNL     1      26.298   1.077  51.515  1.00  0.00    -0.398 N 
ATOM     18  H   UNL     1      26.082   2.041  51.779  1.00  0.00    +0.156 HD
ATOM     19  H   UNL     1      27.257   1.103  51.159  1.00  0.00    +0.156 HD
ENDBRANCH   8  17
ENDBRANCH   1   7
BRANCH   4  20
ATOM     20  C   UNL     1      20.270   0.112  52.592  1.00  0.00    -0.001 A 
ATOM     21  C   UNL     1      19.758  -0.758  53.567  1.00  0.00    +0.010 A 
ATOM     22  C   UNL     1      19.467   0.436  51.491  1.00  0.00    +0.026 A 
ATOM     23  C   UNL     1      18.469  -1.286  53.449  1.00  0.00    +0.002 A 
ATOM     24  C   UNL     1      18.180  -0.094  51.378  1.00  0.00    +0.018 A 
ATOM     25  C   UNL     1      17.676  -0.952  52.352  1.00  0.00    +0.016 A 
ATOM     26 Br   UNL     1      17.108   0.361  49.886  1.00  0.00    -0.051 Br
ENDBRANCH   4  20
TORSDOF 4
ENDMDL
MODEL 3
REMARK VINA RESULT:    -7.811      5.691      8.510
REMARK INTER + INTRA:          -9.800
REMARK INTER:                  -9.269
REMARK INTRA:                  -0.530
REMARK UNBOUND:                -0.390
REMARK SMILES N#CC(C#N)=C(C#N)C(N)=Cc1ccc(-c2cccc(Br)c2)[nH]1
REMARK SMILES IDX 12 1 13 2 14 3 15 4 23 5 11 7 9 8 6 9 1 10 2 11 3 12 4 13
REMARK SMILES IDX 5 14 7 15 8 16 10 17 16 20 17 21 22 22 18 23 20 24 19 25
REMARK SMILES IDX 21 26
REMARK H PARENT 23 6 10 18 10 19
ROOT
ATOM      1  C   UNL     1      25.348   3.961  50.063  1.00  0.00    +0.041 A 
ATOM      2  C   UNL     1      24.478   4.904  49.557  1.00  0.00    +0.028 A 
ATOM      3  C   UNL     1      25.245   5.843  48.825  1.00  0.00    +0.029 A 
ATOM      4  C   UNL     1      26.577   5.476  48.909  1.00  0.00    +0.046 A 
ATOM      5  N   UNL     1      26.615   4.328  49.676  1.00  0.00    -0.355 N 
ATOM      6  H   UNL     1      27.458   3.807  49.876  1.00  0.00    +0.167 HD
ENDROOT
BRANCH   1   7
ATOM      7  C   UNL     1      25.206   2.800  50.864  1.00  0.00    +0.053 C 
ATOM      8  C   UNL     1      24.788   2.830  52.150  1.00  0.00    +0.054 C 
BRANCH   8   9
ATOM      9  C   UNL     1      24.681   1.559  52.900  1.00  0.00    +0.103 C 
ATOM     10  N   UNL     1      27.893   2.341  53.937  1.00  0.00    -0.192 NA
ATOM     11  C   UNL     1      26.899   1.748  53.846  1.00  0.00    +0.112 C 
ATOM     12  C   UNL     1      25.656   1.073  53.702  1.00  0.00    +0.149 C 
ATOM     13  C   UNL     1      25.498  -0.147  54.419  1.00  0.00    +0.112 C 
ATOM     14  N   UNL     1      25.375  -1.145  54.997  1.00  0.00    -0.192 NA
ATOM     15  C   UNL     1      23.446   0.846  52.754  1.00  0.00    +0.103 C 
ATOM     16  N   UNL     1      22.458   0.257  52.605  1.00  0.00    -0.192 NA
ENDBRANCH   8   9
BRANCH   8  17
ATOM     17  N   UNL     1      24.333   3.970  52.806  1.00  0.00    -0.398 N 
ATOM     18  H   UNL     1      23.386   3.850  53.173  1.00  0.00    +0.156 HD
ATOM     19  H   UNL     1      24.915   4.174  53.624  1.00  0.00    +0.156 HD
ENDBRANCH   8  17
ENDBRANCH   1   7
BRANCH   4  20
ATOM     20  C   UNL     1      27.773   6.090  48.329  1.00  0.00    -0.001 A 
ATOM     21  C   UNL     1      27.716   7.352  47.718  1.00  0.00    +0.010 A 
ATOM     22  C   UNL     1      29.001   5.416  48.369  1.00  0.00    +0.026 A 
ATOM     23  C   UNL     1      28.862   7.932  47.167  1.00  0.00    +0.002 A 
ATOM     24  C   UNL     1      30.143   6.001  47.818  1.00  0.00    +0.018 A 
ATOM     25  C   UNL     1      30.080   7.256  47.218  1.00  0.00    +0.016 A 
ATOM     26 Br   UNL     1      31.793   5.078  47.888  1.00  0.00    -0.051 Br
ENDBRANCH   4  20
TORSDOF 4
ENDMDL
MODEL 4
REMARK VINA RESULT:    -7.721      3.464      8.145
REMARK INTER + INTRA:          -9.691
REMARK INTER:                  -9.141
REMARK INTRA:                  -0.549
REMARK UNBOUND:                -0.390
REMARK SMILES N#CC(C#N)=C(C#N)C(N)=Cc1ccc(-c2cccc(Br)c2)[nH]1
REMARK SMILES IDX 12 1 13 2 14 3 15 4 23 5 11 7 9 8 6 9 1 10 2 11 3 12 4 13
REMARK SMILES IDX 5 14 7 15 8 16 10 17 16 20 17 21 22 22 18 23 20 24 19 25
REMARK SMILES IDX 21 26
REMARK H PARENT 23 6 10 18 10 19
ROOT
ATOM      1  C   UNL     1      23.222   1.239  51.452  1.00  0.00    +0.041 A 
ATOM      2  C   UNL     1      23.655   2.346  50.754  1.00  0.00    +0.028 A 
ATOM      3  C   UNL     1      25.029   2.526  51.048  1.00  0.00    +0.029 A 
ATOM      4  C   UNL     1      25.415   1.540  51.940  1.00  0.00    +0.046 A 
ATOM      5  N   UNL     1      24.293   0.771  52.176  1.00  0.00    -0.355 N 
ATOM      6  H   UNL     1      24.283  -0.053  52.763  1.00  0.00    +0.167 HD
ENDROOT
BRANCH   1   7
ATOM      7  C   UNL     1      21.983   0.562  51.583  1.00  0.00    +0.053 C 
ATOM      8  C   UNL     1      20.959   1.023  52.337  1.00  0.00    +0.054 C 
BRANCH   8   9
ATOM      9  C   UNL     1      19.710   0.236  52.411  1.00  0.00    +0.103 C 
ATOM     10  N   UNL     1      21.395  -1.498  54.892  1.00  0.00    -0.192 NA
ATOM     11  C   UNL     1      20.532  -1.199  54.175  1.00  0.00    +0.112 C 
ATOM     12  C   UNL     1      19.509  -0.781  53.280  1.00  0.00    +0.149 C 
ATOM     13  C   UNL     1      18.279  -1.498  53.325  1.00  0.00    +0.112 C 
ATOM     14  N   UNL     1      17.281  -2.088  53.358  1.00  0.00    -0.192 NA
ATOM     15  C   UNL     1      18.670   0.622  51.502  1.00  0.00    +0.103 C 
ATOM     16  N   UNL     1      17.846   0.918  50.741  1.00  0.00    -0.192 NA
ENDBRANCH   8   9
BRANCH   8  17
ATOM     17  N   UNL     1      20.944   2.260  52.976  1.00  0.00    -0.398 N 
ATOM     18  H   UNL     1      21.689   2.876  52.639  1.00  0.00    +0.156 HD
ATOM     19  H   UNL     1      20.072   2.759  52.778  1.00  0.00    +0.156 HD
ENDBRANCH   8  17
ENDBRANCH   1   7
BRANCH   4  20
ATOM     20  C   UNL     1      26.717   1.264  52.551  1.00  0.00    -0.001 A 
ATOM     21  C   UNL     1      27.494   2.296  53.099  1.00  0.00    +0.010 A 
ATOM     22  C   UNL     1      27.213  -0.045  52.590  1.00  0.00    +0.026 A 
ATOM     23  C   UNL     1      28.735   2.025  53.681  1.00  0.00    +0.002 A 
ATOM     24  C   UNL     1      28.453  -0.311  53.173  1.00  0.00    +0.018 A 
ATOM     25  C   UNL     1      29.217   0.717  53.720  1.00  0.00    +0.016 A 
ATOM     26 Br   UNL     1      29.104  -2.087  53.222  1.00  0.00    -0.051 Br
ENDBRANCH   4  20
TORSDOF 4
ENDMDL
MODEL 5
REMARK VINA RESULT:    -7.651      3.777      8.552
REMARK INTER + INTRA:          -9.606
REMARK INTER:                  -9.047
REMARK INTRA:                  -0.559
REMARK UNBOUND:                -0.390
REMARK SMILES N#CC(C#N)=C(C#N)C(N)=Cc1ccc(-c2cccc(Br)c2)[nH]1
REMARK SMILES IDX 12 1 13 2 14 3 15 4 23 5 11 7 9 8 6 9 1 10 2 11 3 12 4 13
REMARK SMILES IDX 5 14 7 15 8 16 10 17 16 20 17 21 22 22 18 23 20 24 19 25
REMARK SMILES IDX 21 26
REMARK H PARENT 23 6 10 18 10 19
ROOT
ATOM      1  C   UNL     1      22.524  -0.549  53.145  1.00  0.00    +0.041 A 
ATOM      2  C   UNL     1      22.689  -1.107  54.395  1.00  0.00    +0.028 A 
ATOM      3  C   UNL     1      24.019  -0.850  54.806  1.00  0.00    +0.029 A 
ATOM      4  C   UNL     1      24.659  -0.155  53.794  1.00  0.00    +0.046 A 
ATOM      5  N   UNL     1      23.728   0.011  52.789  1.00  0.00    -0.355 N 
ATOM      6  H   UNL     1      23.902   0.520  51.932  1.00  0.00    +0.167 HD
ENDROOT
BRANCH   1   7
ATOM      7  C   UNL     1      21.453  -0.471  52.220  1.00  0.00    +0.053 C 
ATOM      8  C   UNL     1      20.504   0.492  52.258  1.00  0.00    +0.054 C 
BRANCH   8   9
ATOM      9  C   UNL     1      19.425   0.478  51.247  1.00  0.00    +0.103 C 
ATOM     10  N   UNL     1      17.824  -1.570  53.537  1.00  0.00    -0.192 NA
ATOM     11  C   UNL     1      17.993  -0.956  52.567  1.00  0.00    +0.112 C 
ATOM     12  C   UNL     1      18.253  -0.178  51.405  1.00  0.00    +0.149 C 
ATOM     13  C   UNL     1      17.235  -0.146  50.409  1.00  0.00    +0.112 C 
ATOM     14  N   UNL     1      16.408  -0.128  49.596  1.00  0.00    -0.192 NA
ATOM     15  C   UNL     1      19.672   1.236  50.055  1.00  0.00    +0.103 C 
ATOM     16  N   UNL     1      19.891   1.822  49.079  1.00  0.00    -0.192 NA
ENDBRANCH   8   9
BRANCH   8  17
ATOM     17  N   UNL     1      20.523   1.584  53.122  1.00  0.00    -0.398 N 
ATOM     18  H   UNL     1      20.005   1.399  53.985  1.00  0.00    +0.156 HD
ATOM     19  H   UNL     1      21.479   1.794  53.421  1.00  0.00    +0.156 HD
ENDBRANCH   8  17
ENDBRANCH   1   7
BRANCH   4  20
ATOM     20  C   UNL     1      26.027   0.363  53.711  1.00  0.00    -0.001 A 
ATOM     21  C   UNL     1      26.278   1.743  53.669  1.00  0.00    +0.010 A 
ATOM     22  C   UNL     1      27.113  -0.520  53.665  1.00  0.00    +0.026 A 
ATOM     23  C   UNL     1      27.585   2.230  53.590  1.00  0.00    +0.002 A 
ATOM     24  C   UNL     1      28.417  -0.029  53.588  1.00  0.00    +0.018 A 
ATOM     25  C   UNL     1      28.660   1.342  53.552  1.00  0.00    +0.016 A 
ATOM     26 Br   UNL     1      29.872  -1.238  53.534  1.00  0.00    -0.051 Br
ENDBRANCH   4  20
TORSDOF 4
ENDMDL
MODEL 6
REMARK VINA RESULT:    -7.631      4.813      7.793
REMARK INTER + INTRA:          -9.583
REMARK INTER:                  -9.206
REMARK INTRA:                  -0.377
REMARK UNBOUND:                -0.390
REMARK SMILES N#CC(C#N)=C(C#N)C(N)=Cc1ccc(-c2cccc(Br)c2)[nH]1
REMARK SMILES IDX 12 1 13 2 14 3 15 4 23 5 11 7 9 8 6 9 1 10 2 11 3 12 4 13
REMARK SMILES IDX 5 14 7 15 8 16 10 17 16 20 17 21 22 22 18 23 20 24 19 25
REMARK SMILES IDX 21 26
REMARK H PARENT 23 6 10 18 10 19
ROOT
ATOM      1  C   UNL     1      23.754   2.859  50.229  1.00  0.00    +0.041 A 
ATOM      2  C   UNL     1      22.938   3.562  49.368  1.00  0.00    +0.028 A 
ATOM      3  C   UNL     1      23.721   4.581  48.773  1.00  0.00    +0.029 A 
ATOM      4  C   UNL     1      25.002   4.503  49.293  1.00  0.00    +0.046 A 
ATOM      5  N   UNL     1      24.995   3.449  50.184  1.00  0.00    -0.355 N 
ATOM      6  H   UNL     1      25.810   3.130  50.692  1.00  0.00    +0.167 HD
ENDROOT
BRANCH   1   7
ATOM      7  C   UNL     1      23.572   1.758  51.102  1.00  0.00    +0.053 C 
ATOM      8  C   UNL     1      23.699   1.844  52.446  1.00  0.00    +0.054 C 
BRANCH   8   9
ATOM      9  C   UNL     1      23.494   0.631  53.267  1.00  0.00    +0.103 C 
ATOM     10  N   UNL     1      20.152   1.518  53.063  1.00  0.00    -0.192 NA
ATOM     11  C   UNL     1      21.093   0.902  53.352  1.00  0.00    +0.112 C 
ATOM     12  C   UNL     1      22.281   0.187  53.666  1.00  0.00    +0.149 C 
ATOM     13  C   UNL     1      22.134  -0.999  54.441  1.00  0.00    +0.112 C 
ATOM     14  N   UNL     1      22.012  -1.960  55.079  1.00  0.00    -0.192 NA
ATOM     15  C   UNL     1      24.679  -0.097  53.618  1.00  0.00    +0.103 C 
ATOM     16  N   UNL     1      25.644  -0.662  53.927  1.00  0.00    -0.192 NA
ENDBRANCH   8   9
BRANCH   8  17
ATOM     17  N   UNL     1      23.904   3.030  53.145  1.00  0.00    -0.398 N 
ATOM     18  H   UNL     1      24.284   2.864  54.080  1.00  0.00    +0.156 HD
ATOM     19  H   UNL     1      24.598   3.615  52.671  1.00  0.00    +0.156 HD
ENDBRANCH   8  17
ENDBRANCH   1   7
BRANCH   4  20
ATOM     20  C   UNL     1      26.195   5.305  49.012  1.00  0.00    -0.001 A 
ATOM     21  C   UNL     1      27.415   4.698  48.680  1.00  0.00    +0.010 A 
ATOM     22  C   UNL     1      26.135   6.703  49.078  1.00  0.00    +0.026 A 
ATOM     23  C   UNL     1      28.549   5.470  48.412  1.00  0.00    +0.002 A 
ATOM     24  C   UNL     1      27.270   7.470  48.808  1.00  0.00    +0.018 A 
ATOM     25  C   UNL     1      28.477   6.861  48.474  1.00  0.00    +0.016 A 
ATOM     26 Br   UNL     1      27.168   9.357  48.896  1.00  0.00    -0.051 Br
ENDBRANCH   4  20
TORSDOF 4
ENDMDL
MODEL 7
REMARK VINA RESULT:    -7.537      1.863      3.025
REMARK INTER + INTRA:          -9.469
REMARK INTER:                  -9.196
REMARK INTRA:                  -0.273
REMARK UNBOUND:                -0.390
REMARK SMILES N#CC(C#N)=C(C#N)C(N)=Cc1ccc(-c2cccc(Br)c2)[nH]1
REMARK SMILES IDX 12 1 13 2 14 3 15 4 23 5 11 7 9 8 6 9 1 10 2 11 3 12 4 13
REMARK SMILES IDX 5 14 7 15 8 16 10 17 16 20 17 21 22 22 18 23 20 24 19 25
REMARK SMILES IDX 21 26
REMARK H PARENT 23 6 10 18 10 19
ROOT
ATOM      1  C   UNL     1      22.317   0.430  53.406  1.00  0.00    +0.041 A 
ATOM      2  C   UNL     1      21.815  -0.400  54.385  1.00  0.00    +0.028 A 
ATOM      3  C   UNL     1      20.493  -0.747  54.015  1.00  0.00    +0.029 A 
ATOM      4  C   UNL     1      20.194  -0.108  52.823  1.00  0.00    +0.046 A 
ATOM      5  N   UNL     1      21.321   0.609  52.475  1.00  0.00    -0.355 N 
ATOM      6  H   UNL     1      21.410   1.148  51.624  1.00  0.00    +0.167 HD
ENDROOT
BRANCH   1   7
ATOM      7  C   UNL     1      23.547   1.104  53.202  1.00  0.00    +0.053 C 
ATOM      8  C   UNL     1      24.745   0.475  53.175  1.00  0.00    +0.054 C 
BRANCH   8   9
ATOM      9  C   UNL     1      25.971   1.274  52.962  1.00  0.00    +0.103 C 
ATOM     10  N   UNL     1      26.922  -0.070  56.010  1.00  0.00    -0.192 NA
ATOM     11  C   UNL     1      26.990   0.554  55.034  1.00  0.00    +0.112 C 
ATOM     12  C   UNL     1      27.019   1.290  53.817  1.00  0.00    +0.149 C 
ATOM     13  C   UNL     1      28.187   2.063  53.558  1.00  0.00    +0.112 C 
ATOM     14  N   UNL     1      29.136   2.697  53.353  1.00  0.00    -0.192 NA
ATOM     15  C   UNL     1      26.016   2.044  51.753  1.00  0.00    +0.103 C 
ATOM     16  N   UNL     1      26.031   2.691  50.791  1.00  0.00    -0.192 NA
ENDBRANCH   8   9
BRANCH   8  17
ATOM     17  N   UNL     1      24.912  -0.906  53.222  1.00  0.00    -0.398 N 
ATOM     18  H   UNL     1      25.713  -1.215  52.665  1.00  0.00    +0.156 HD
ATOM     19  H   UNL     1      25.113  -1.214  54.177  1.00  0.00    +0.156 HD
ENDBRANCH   8  17
ENDBRANCH   1   7
BRANCH   4  20
ATOM     20  C   UNL     1      18.979  -0.136  52.006  1.00  0.00    -0.001 A 
ATOM     21  C   UNL     1      18.899   0.578  50.801  1.00  0.00    +0.010 A 
ATOM     22  C   UNL     1      17.866  -0.877  52.424  1.00  0.00    +0.026 A 
ATOM     23  C   UNL     1      17.737   0.546  50.027  1.00  0.00    +0.002 A 
ATOM     24  C   UNL     1      16.707  -0.906  51.646  1.00  0.00    +0.018 A 
ATOM     25  C   UNL     1      16.637  -0.199  50.449  1.00  0.00    +0.016 A 
ATOM     26 Br   UNL     1      15.217  -1.918  52.224  1.00  0.00    -0.051 Br
ENDBRANCH   4  20
TORSDOF 4
ENDMDL
MODEL 8
REMARK VINA RESULT:    -7.535      5.211      7.739
REMARK INTER + INTRA:          -9.466
REMARK INTER:                  -9.110
REMARK INTRA:                  -0.357
REMARK UNBOUND:                -0.390
REMARK SMILES N#CC(C#N)=C(C#N)C(N)=Cc1ccc(-c2cccc(Br)c2)[nH]1
REMARK SMILES IDX 12 1 13 2 14 3 15 4 23 5 11 7 9 8 6 9 1 10 2 11 3 12 4 13
REMARK SMILES IDX 5 14 7 15 8 16 10 17 16 20 17 21 22 22 18 23 20 24 19 25
REMARK SMILES IDX 21 26
REMARK H PARENT 23 6 10 18 10 19
ROOT
ATOM      1  C   UNL     1      24.918   3.657  50.846  1.00  0.00    +0.041 A 
ATOM      2  C   UNL     1      23.924   4.033  49.968  1.00  0.00    +0.028 A 
ATOM      3  C   UNL     1      24.509   4.886  49.000  1.00  0.00    +0.029 A 
ATOM      4  C   UNL     1      25.850   5.038  49.310  1.00  0.00    +0.046 A 
ATOM      5  N   UNL     1      26.073   4.283  50.444  1.00  0.00    -0.355 N 
ATOM      6  H   UNL     1      26.978   4.172  50.882  1.00  0.00    +0.167 HD
ENDROOT
BRANCH   1   7
ATOM      7  C   UNL     1      24.970   2.841  52.004  1.00  0.00    +0.053 C 
ATOM      8  C   UNL     1      25.682   1.693  52.074  1.00  0.00    +0.054 C 
BRANCH   8   9
ATOM      9  C   UNL     1      25.664   0.911  53.329  1.00  0.00    +0.103 C 
ATOM     10  N   UNL     1      28.630   2.583  53.968  1.00  0.00    -0.192 NA
ATOM     11  C   UNL     1      27.734   1.865  54.138  1.00  0.00    +0.112 C 
ATOM     12  C   UNL     1      26.607   1.011  54.293  1.00  0.00    +0.149 C 
ATOM     13  C   UNL     1      26.535   0.250  55.494  1.00  0.00    +0.112 C 
ATOM     14  N   UNL     1      26.484  -0.375  56.470  1.00  0.00    -0.192 NA
ATOM     15  C   UNL     1      24.550   0.024  53.500  1.00  0.00    +0.103 C 
ATOM     16  N   UNL     1      23.665  -0.716  53.617  1.00  0.00    -0.192 NA
ENDBRANCH   8   9
BRANCH   8  17
ATOM     17  N   UNL     1      26.536   1.232  51.076  1.00  0.00    -0.398 N 
ATOM     18  H   UNL     1      26.671   1.926  50.336  1.00  0.00    +0.156 HD
ATOM     19  H   UNL     1      27.471   1.054  51.453  1.00  0.00    +0.156 HD
ENDBRANCH   8  17
ENDBRANCH   1   7
BRANCH   4  20
ATOM     20  C   UNL     1      26.904   5.797  48.633  1.00  0.00    -0.001 A 
ATOM     21  C   UNL     1      28.203   5.283  48.511  1.00  0.00    +0.010 A 
ATOM     22  C   UNL     1      26.628   7.063  48.100  1.00  0.00    +0.026 A 
ATOM     23  C   UNL     1      29.203   6.013  47.863  1.00  0.00    +0.002 A 
ATOM     24  C   UNL     1      27.630   7.788  47.453  1.00  0.00    +0.018 A 
ATOM     25  C   UNL     1      28.917   7.269  47.330  1.00  0.00    +0.016 A 
ATOM     26 Br   UNL     1      27.237   9.493  46.733  1.00  0.00    -0.051 Br
ENDBRANCH   4  20
TORSDOF 4
ENDMDL
MODEL 9
REMARK VINA RESULT:    -7.401      5.034      7.702
REMARK INTER + INTRA:          -9.305
REMARK INTER:                  -8.768
REMARK INTRA:                  -0.538
REMARK UNBOUND:                -0.390
REMARK SMILES N#CC(C#N)=C(C#N)C(N)=Cc1ccc(-c2cccc(Br)c2)[nH]1
REMARK SMILES IDX 12 1 13 2 14 3 15 4 23 5 11 7 9 8 6 9 1 10 2 11 3 12 4 13
REMARK SMILES IDX 5 14 7 15 8 16 10 17 16 20 17 21 22 22 18 23 20 24 19 25
REMARK SMILES IDX 21 26
REMARK H PARENT 23 6 10 18 10 19
ROOT
ATOM      1  C   UNL     1      25.148   2.752  50.628  1.00  0.00    +0.041 A 
ATOM      2  C   UNL     1      26.514   2.731  50.439  1.00  0.00    +0.028 A 
ATOM      3  C   UNL     1      26.862   3.887  49.699  1.00  0.00    +0.029 A 
ATOM      4  C   UNL     1      25.702   4.592  49.425  1.00  0.00    +0.046 A 
ATOM      5  N   UNL     1      24.669   3.876  49.997  1.00  0.00    -0.355 N 
ATOM      6  H   UNL     1      23.702   4.172  49.991  1.00  0.00    +0.167 HD
ENDROOT
BRANCH   1   7
ATOM      7  C   UNL     1      24.215   1.898  51.266  1.00  0.00    +0.053 C 
ATOM      8  C   UNL     1      24.035   1.861  52.607  1.00  0.00    +0.054 C 
BRANCH   8   9
ATOM      9  C   UNL     1      23.038   0.927  53.173  1.00  0.00    +0.103 C 
ATOM     10  N   UNL     1      25.834  -0.875  54.140  1.00  0.00    -0.192 NA
ATOM     11  C   UNL     1      24.713  -0.598  54.018  1.00  0.00    +0.112 C 
ATOM     12  C   UNL     1      23.359  -0.202  53.845  1.00  0.00    +0.149 C 
ATOM     13  C   UNL     1      22.360  -1.060  54.388  1.00  0.00    +0.112 C 
ATOM     14  N   UNL     1      21.549  -1.765  54.824  1.00  0.00    -0.192 NA
ATOM     15  C   UNL     1      21.663   1.292  52.991  1.00  0.00    +0.103 C 
ATOM     16  N   UNL     1      20.553   1.575  52.812  1.00  0.00    -0.192 NA
ENDBRANCH   8   9
BRANCH   8  17
ATOM     17  N   UNL     1      24.646   2.728  53.509  1.00  0.00    -0.398 N 
ATOM     18  H   UNL     1      25.642   2.851  53.308  1.00  0.00    +0.156 HD
ATOM     19  H   UNL     1      24.240   3.665  53.443  1.00  0.00    +0.156 HD
ENDBRANCH   8  17
ENDBRANCH   1   7
BRANCH   4  20
ATOM     20  C   UNL     1      25.501   5.853  48.708  1.00  0.00    -0.001 A 
ATOM     21  C   UNL     1      24.214   6.294  48.363  1.00  0.00    +0.010 A 
ATOM     22  C   UNL     1      26.601   6.641  48.346  1.00  0.00    +0.026 A 
ATOM     23  C   UNL     1      24.030   7.499  47.680  1.00  0.00    +0.002 A 
ATOM     24  C   UNL     1      26.412   7.844  47.665  1.00  0.00    +0.018 A 
ATOM     25  C   UNL     1      25.132   8.278  47.330  1.00  0.00    +0.016 A 
ATOM     26 Br   UNL     1      27.910   8.898  47.191  1.00  0.00    -0.051 Br
ENDBRANCH   4  20
TORSDOF 4
ENDMDL
