REMARK SMILES Cc1cccc(-c2ccc(-c3ccc(O)c([N+](=O)[O-])c3)[nH]2)c1
REMARK SMILES IDX 11 1 12 2 13 3 14 4 16 5 20 6 10 7 7 8 8 9 21 10 9 11 6 13
REMARK SMILES IDX 2 14 3 15 22 16 4 17 5 18 1 19 17 20 18 21 19 22 15 23
REMARK H PARENT 21 12 15 24
ROOT
ATOM      1  C   UNL     1       2.338   0.029   0.064  1.00  0.00    +0.005 A 
ATOM      2  C   UNL     1       2.350   0.627  -1.204  1.00  0.00    +0.014 A 
ATOM      3  C   UNL     1       3.501   0.603  -1.997  1.00  0.00    +0.054 A 
ATOM      4  C   UNL     1       4.660  -0.017  -1.536  1.00  0.00    +0.194 A 
ATOM      5  C   UNL     1       4.664  -0.613  -0.269  1.00  0.00    +0.311 A 
ATOM      6  C   UNL     1       3.507  -0.589   0.529  1.00  0.00    +0.100 A 
ENDROOT
BRANCH   1   7
ATOM      7  C   UNL     1       1.136   0.052   0.899  1.00  0.00    +0.046 A 
ATOM      8  C   UNL     1      -1.088   0.017   1.387  1.00  0.00    +0.046 A 
ATOM      9  C   UNL     1      -0.389   0.084   2.578  1.00  0.00    +0.029 A 
ATOM     10  N   UNL     1      -0.142  -0.016   0.385  1.00  0.00    -0.355 N 
ATOM     11  C   UNL     1       0.994   0.107   2.275  1.00  0.00    +0.029 A 
ATOM     12  H   UNL     1      -0.361  -0.120  -0.595  1.00  0.00    +0.167 HD
BRANCH   8  13
ATOM     13  C   UNL     1      -2.527  -0.050   1.127  1.00  0.00    -0.002 A 
ATOM     14  C   UNL     1      -4.470   0.519  -0.242  1.00  0.00    -0.050 A 
ATOM     15  C   UNL     1      -5.291  -0.184   0.644  1.00  0.00    +0.003 A 
ATOM     16  C   UNL     1      -3.092   0.592   0.014  1.00  0.00    +0.013 A 
ATOM     17  C   UNL     1      -4.743  -0.822   1.756  1.00  0.00    +0.001 A 
ATOM     18  C   UNL     1      -3.369  -0.754   1.995  1.00  0.00    +0.010 A 
ATOM     19  C   UNL     1      -5.063   1.245  -1.414  1.00  0.00    +0.044 C 
ENDBRANCH   8  13
ENDBRANCH   1   7
BRANCH   5  20
ATOM     20  N   UNL     1       5.865  -1.270   0.251  1.00  0.00    +0.066 N 
ATOM     21  O   UNL     1       6.867  -1.293  -0.483  1.00  0.00    -0.258 OA
ATOM     22  O   UNL     1       5.818  -1.763   1.386  1.00  0.00    -0.258 OA
ENDBRANCH   5  20
BRANCH   4  23
ATOM     23  O   UNL     1       5.721   0.021  -2.399  1.00  0.00    -0.502 OA
ATOM     24  H   UNL     1       6.492  -0.438  -2.001  1.00  0.00    +0.293 HD
ENDBRANCH   4  23
TORSDOF 4
