REMARK SMILES c1ccc(-c2ncnc3ccc(N/N=N/Cc4ccccn4)cc23)cc1
REMARK SMILES IDX 14 1 15 2 13 3 12 5 5 6 6 7 24 8 7 9 23 10 9 11 8 12 10 13
REMARK SMILES IDX 11 14 4 15 1 16 2 17 26 18 3 19 25 20 16 21 17 22 18 23
REMARK SMILES IDX 22 24 19 25 21 26 20 27
REMARK H PARENT 13 4
ROOT
ATOM      1  N   UNL     1       1.980   0.494   1.234  1.00  0.00    -0.074 NA
ATOM      2  N   UNL     1       2.696   1.409   0.786  1.00  0.00    -0.164 NA
ENDROOT
BRANCH   1   3
ATOM      3  N   UNL     1       0.897   0.458   0.437  1.00  0.00    -0.260 N 
ATOM      4  H   UNL     1       0.728   1.303  -0.097  1.00  0.00    +0.192 HD
BRANCH   3   5
ATOM      5  C   UNL     1      -0.246  -0.238   0.863  1.00  0.00    +0.059 A 
ATOM      6  C   UNL     1      -3.862  -0.715  -0.140  1.00  0.00    +0.081 A 
ATOM      7  N   UNL     1      -4.934  -1.460   0.210  1.00  0.00    -0.236 NA
ATOM      8  C   UNL     1      -2.616  -0.816   0.502  1.00  0.00    +0.029 A 
ATOM      9  C   UNL     1      -4.756  -2.300   1.232  1.00  0.00    +0.223 A 
ATOM     10  C   UNL     1      -1.445  -0.086   0.157  1.00  0.00    +0.040 A 
ATOM     11  C   UNL     1      -2.569  -1.738   1.554  1.00  0.00    +0.074 A 
ATOM     12  N   UNL     1      -3.623  -2.473   1.924  1.00  0.00    -0.236 NA
ATOM     13  C   UNL     1      -1.370  -1.903   2.232  1.00  0.00    +0.031 A 
ATOM     14  C   UNL     1      -0.220  -1.177   1.893  1.00  0.00    +0.030 A 
BRANCH   6  15
ATOM     15  C   UNL     1      -4.119   0.209  -1.255  1.00  0.00    +0.001 A 
ATOM     16  C   UNL     1      -4.585   1.969  -3.398  1.00  0.00    +0.000 A 
ATOM     17  C   UNL     1      -4.462   2.466  -2.103  1.00  0.00    +0.001 A 
ATOM     18  C   UNL     1      -4.487   0.599  -3.630  1.00  0.00    +0.001 A 
ATOM     19  C   UNL     1      -4.233   1.592  -1.038  1.00  0.00    +0.010 A 
ATOM     20  C   UNL     1      -4.261  -0.276  -2.564  1.00  0.00    +0.010 A 
ENDBRANCH   6  15
ENDBRANCH   3   5
ENDBRANCH   1   3
BRANCH   2  21
ATOM     21  C   UNL     1       3.957   1.556   1.540  1.00  0.00    +0.225 C 
BRANCH  21  22
ATOM     22  C   UNL     1       5.088   0.653   1.094  1.00  0.00    +0.064 A 
ATOM     23  C   UNL     1       5.099   0.050  -0.163  1.00  0.00    +0.026 A 
ATOM     24  N   UNL     1       6.119   0.509   1.968  1.00  0.00    -0.259 NA
ATOM     25  C   UNL     1       6.186  -0.743  -0.525  1.00  0.00    +0.004 A 
ATOM     26  C   UNL     1       7.159  -0.266   1.589  1.00  0.00    +0.111 A 
ATOM     27  C   UNL     1       7.237  -0.907   0.366  1.00  0.00    +0.020 A 
ENDBRANCH  21  22
ENDBRANCH   2  21
TORSDOF 5
