MODEL 1
REMARK VINA RESULT:    -7.504      0.000      0.000
REMARK INTER + INTRA:          -9.180
REMARK INTER:                  -8.601
REMARK INTRA:                  -0.579
REMARK UNBOUND:                -0.579
REMARK SMILES O=[N+]([O-])c1cc(-c2cccc(Br)c2)ccc1O
REMARK SMILES IDX 4 1 5 2 6 3 14 4 15 5 16 6 2 7 1 8 3 9 17 10 7 12 8 13 13 14
REMARK SMILES IDX 9 15 11 16 10 17 12 18
REMARK H PARENT 17 11
ROOT
ATOM      1  C   UNL     1      26.982   0.557  54.103  1.00  0.00    +0.311 A 
ATOM      2  C   UNL     1      25.666   0.082  54.242  1.00  0.00    +0.098 A 
ATOM      3  C   UNL     1      24.660   0.481  53.346  1.00  0.00    -0.011 A 
ATOM      4  C   UNL     1      25.008   1.367  52.313  1.00  0.00    +0.013 A 
ATOM      5  C   UNL     1      26.316   1.840  52.175  1.00  0.00    +0.054 A 
ATOM      6  C   UNL     1      27.308   1.438  53.065  1.00  0.00    +0.194 A 
ENDROOT
BRANCH   1   7
ATOM      7  N   UNL     1      27.997   0.113  55.061  1.00  0.00    +0.066 N 
ATOM      8  O   UNL     1      29.114  -0.197  54.626  1.00  0.00    -0.258 OA
ATOM      9  O   UNL     1      27.672   0.069  56.259  1.00  0.00    -0.258 OA
ENDBRANCH   1   7
BRANCH   6  10
ATOM     10  O   UNL     1      28.549   1.964  52.831  1.00  0.00    -0.502 OA
ATOM     11  H   UNL     1      28.980   1.489  52.089  1.00  0.00    +0.293 HD
ENDBRANCH   6  10
BRANCH   3  12
ATOM     12  C   UNL     1      23.280  -0.014  53.485  1.00  0.00    -0.017 A 
ATOM     13  C   UNL     1      22.929  -0.893  54.526  1.00  0.00    +0.009 A 
ATOM     14  C   UNL     1      22.276   0.378  52.585  1.00  0.00    +0.024 A 
ATOM     15  C   UNL     1      21.620  -1.364  54.664  1.00  0.00    +0.002 A 
ATOM     16  C   UNL     1      20.970  -0.096  52.725  1.00  0.00    +0.018 A 
ATOM     17  C   UNL     1      20.637  -0.965  53.761  1.00  0.00    +0.016 A 
ATOM     18 Br   UNL     1      19.640   0.446  51.494  1.00  0.00    -0.051 Br
ENDBRANCH   3  12
TORSDOF 3
ENDMDL
MODEL 2
REMARK VINA RESULT:    -7.235      1.244      2.038
REMARK INTER + INTRA:          -8.872
REMARK INTER:                  -8.281
REMARK INTRA:                  -0.591
REMARK UNBOUND:                -0.579
REMARK SMILES O=[N+]([O-])c1cc(-c2cccc(Br)c2)ccc1O
REMARK SMILES IDX 4 1 5 2 6 3 14 4 15 5 16 6 2 7 1 8 3 9 17 10 7 12 8 13 13 14
REMARK SMILES IDX 9 15 11 16 10 17 12 18
REMARK H PARENT 17 11
ROOT
ATOM      1  C   UNL     1      27.322   0.773  53.910  1.00  0.00    +0.311 A 
ATOM      2  C   UNL     1      25.959   0.490  53.712  1.00  0.00    +0.098 A 
ATOM      3  C   UNL     1      25.230   1.139  52.701  1.00  0.00    -0.011 A 
ATOM      4  C   UNL     1      25.902   2.076  51.898  1.00  0.00    +0.013 A 
ATOM      5  C   UNL     1      27.258   2.358  52.095  1.00  0.00    +0.054 A 
ATOM      6  C   UNL     1      27.973   1.708  53.098  1.00  0.00    +0.194 A 
ENDROOT
BRANCH   1   7
ATOM      7  N   UNL     1      28.040   0.070  54.975  1.00  0.00    +0.066 N 
ATOM      8  O   UNL     1      27.585   0.132  56.125  1.00  0.00    -0.258 OA
ATOM      9  O   UNL     1      29.070  -0.548  54.660  1.00  0.00    -0.258 OA
ENDBRANCH   1   7
BRANCH   6  10
ATOM     10  O   UNL     1      29.291   2.063  53.195  1.00  0.00    -0.502 OA
ATOM     11  H   UNL     1      29.587   1.999  54.128  1.00  0.00    +0.293 HD
ENDBRANCH   6  10
BRANCH   3  12
ATOM     12  C   UNL     1      23.802   0.847  52.487  1.00  0.00    -0.017 A 
ATOM     13  C   UNL     1      23.090   1.452  51.436  1.00  0.00    +0.009 A 
ATOM     14  C   UNL     1      23.112  -0.044  53.326  1.00  0.00    +0.024 A 
ATOM     15  C   UNL     1      21.736   1.176  51.228  1.00  0.00    +0.002 A 
ATOM     16  C   UNL     1      21.759  -0.317  53.115  1.00  0.00    +0.018 A 
ATOM     17  C   UNL     1      21.068   0.290  52.070  1.00  0.00    +0.016 A 
ATOM     18 Br   UNL     1      20.857  -1.518  54.263  1.00  0.00    -0.051 Br
ENDBRANCH   3  12
TORSDOF 3
ENDMDL
MODEL 3
REMARK VINA RESULT:    -7.227      2.872      4.503
REMARK INTER + INTRA:          -8.862
REMARK INTER:                  -8.293
REMARK INTRA:                  -0.569
REMARK UNBOUND:                -0.579
REMARK SMILES O=[N+]([O-])c1cc(-c2cccc(Br)c2)ccc1O
REMARK SMILES IDX 4 1 5 2 6 3 14 4 15 5 16 6 2 7 1 8 3 9 17 10 7 12 8 13 13 14
REMARK SMILES IDX 9 15 11 16 10 17 12 18
REMARK H PARENT 17 11
ROOT
ATOM      1  C   UNL     1      24.135  -0.700  54.299  1.00  0.00    +0.311 A 
ATOM      2  C   UNL     1      23.899  -0.009  53.097  1.00  0.00    +0.098 A 
ATOM      3  C   UNL     1      22.593   0.140  52.599  1.00  0.00    -0.011 A 
ATOM      4  C   UNL     1      21.536  -0.421  53.335  1.00  0.00    +0.013 A 
ATOM      5  C   UNL     1      21.771  -1.108  54.530  1.00  0.00    +0.054 A 
ATOM      6  C   UNL     1      23.067  -1.250  55.018  1.00  0.00    +0.194 A 
ENDROOT
BRANCH   1   7
ATOM      7  N   UNL     1      25.512  -0.829  54.779  1.00  0.00    +0.066 N 
ATOM      8  O   UNL     1      25.713  -0.778  55.999  1.00  0.00    -0.258 OA
ATOM      9  O   UNL     1      26.403  -0.979  53.926  1.00  0.00    -0.258 OA
ENDBRANCH   1   7
BRANCH   6  10
ATOM     10  O   UNL     1      23.175  -1.939  56.195  1.00  0.00    -0.502 OA
ATOM     11  H   UNL     1      23.650  -2.783  56.047  1.00  0.00    +0.293 HD
ENDBRANCH   6  10
BRANCH   3  12
ATOM     12  C   UNL     1      22.339   0.863  51.342  1.00  0.00    -0.017 A 
ATOM     13  C   UNL     1      21.273   0.496  50.500  1.00  0.00    +0.009 A 
ATOM     14  C   UNL     1      23.151   1.939  50.948  1.00  0.00    +0.024 A 
ATOM     15  C   UNL     1      21.026   1.180  49.307  1.00  0.00    +0.002 A 
ATOM     16  C   UNL     1      22.901   2.620  49.755  1.00  0.00    +0.018 A 
ATOM     17  C   UNL     1      21.842   2.245  48.933  1.00  0.00    +0.016 A 
ATOM     18 Br   UNL     1      24.014   4.063  49.250  1.00  0.00    -0.051 Br
ENDBRANCH   3  12
TORSDOF 3
ENDMDL
MODEL 4
REMARK VINA RESULT:    -7.152      2.212      4.414
REMARK INTER + INTRA:          -8.776
REMARK INTER:                  -8.199
REMARK INTRA:                  -0.578
REMARK UNBOUND:                -0.579
REMARK SMILES O=[N+]([O-])c1cc(-c2cccc(Br)c2)ccc1O
REMARK SMILES IDX 4 1 5 2 6 3 14 4 15 5 16 6 2 7 1 8 3 9 17 10 7 12 8 13 13 14
REMARK SMILES IDX 9 15 11 16 10 17 12 18
REMARK H PARENT 17 11
ROOT
ATOM      1  C   UNL     1      26.302   0.061  54.533  1.00  0.00    +0.311 A 
ATOM      2  C   UNL     1      26.346   0.961  53.454  1.00  0.00    +0.098 A 
ATOM      3  C   UNL     1      25.232   1.131  52.614  1.00  0.00    -0.011 A 
ATOM      4  C   UNL     1      24.079   0.375  52.885  1.00  0.00    +0.013 A 
ATOM      5  C   UNL     1      24.035  -0.520  53.958  1.00  0.00    +0.054 A 
ATOM      6  C   UNL     1      25.143  -0.681  54.787  1.00  0.00    +0.194 A 
ENDROOT
BRANCH   1   7
ATOM      7  N   UNL     1      27.488  -0.081  55.381  1.00  0.00    +0.066 N 
ATOM      8  O   UNL     1      27.351   0.054  56.604  1.00  0.00    -0.258 OA
ATOM      9  O   UNL     1      28.568  -0.326  54.818  1.00  0.00    -0.258 OA
ENDBRANCH   1   7
BRANCH   6  10
ATOM     10  O   UNL     1      24.983  -1.582  55.803  1.00  0.00    -0.502 OA
ATOM     11  H   UNL     1      24.488  -1.170  56.542  1.00  0.00    +0.293 HD
ENDBRANCH   6  10
BRANCH   3  12
ATOM     12  C   UNL     1      25.271   2.073  51.483  1.00  0.00    -0.017 A 
ATOM     13  C   UNL     1      26.495   2.477  50.920  1.00  0.00    +0.009 A 
ATOM     14  C   UNL     1      24.088   2.593  50.932  1.00  0.00    +0.024 A 
ATOM     15  C   UNL     1      26.538   3.368  49.845  1.00  0.00    +0.002 A 
ATOM     16  C   UNL     1      24.134   3.484  49.859  1.00  0.00    +0.018 A 
ATOM     17  C   UNL     1      25.354   3.874  49.313  1.00  0.00    +0.016 A 
ATOM     18 Br   UNL     1      22.524   4.170  49.142  1.00  0.00    -0.051 Br
ENDBRANCH   3  12
TORSDOF 3
ENDMDL
MODEL 5
REMARK VINA RESULT:    -6.925      3.817      5.197
REMARK INTER + INTRA:          -8.516
REMARK INTER:                  -7.959
REMARK INTRA:                  -0.557
REMARK UNBOUND:                -0.579
REMARK SMILES O=[N+]([O-])c1cc(-c2cccc(Br)c2)ccc1O
REMARK SMILES IDX 4 1 5 2 6 3 14 4 15 5 16 6 2 7 1 8 3 9 17 10 7 12 8 13 13 14
REMARK SMILES IDX 9 15 11 16 10 17 12 18
REMARK H PARENT 17 11
ROOT
ATOM      1  C   UNL     1      23.424  -0.471  54.261  1.00  0.00    +0.311 A 
ATOM      2  C   UNL     1      23.237   0.369  53.148  1.00  0.00    +0.098 A 
ATOM      3  C   UNL     1      24.338   0.878  52.439  1.00  0.00    -0.011 A 
ATOM      4  C   UNL     1      25.626   0.525  52.875  1.00  0.00    +0.013 A 
ATOM      5  C   UNL     1      25.813  -0.309  53.982  1.00  0.00    +0.054 A 
ATOM      6  C   UNL     1      24.716  -0.811  54.678  1.00  0.00    +0.194 A 
ENDROOT
BRANCH   1   7
ATOM      7  N   UNL     1      22.246  -0.977  54.968  1.00  0.00    +0.066 N 
ATOM      8  O   UNL     1      21.256  -0.239  55.057  1.00  0.00    -0.258 OA
ATOM      9  O   UNL     1      22.313  -2.124  55.441  1.00  0.00    -0.258 OA
ENDBRANCH   1   7
BRANCH   6  10
ATOM     10  O   UNL     1      25.021  -1.617  55.741  1.00  0.00    -0.502 OA
ATOM     11  H   UNL     1      24.627  -1.253  56.562  1.00  0.00    +0.293 HD
ENDBRANCH   6  10
BRANCH   3  12
ATOM     12  C   UNL     1      24.149   1.756  51.273  1.00  0.00    -0.017 A 
ATOM     13  C   UNL     1      22.950   1.733  50.537  1.00  0.00    +0.009 A 
ATOM     14  C   UNL     1      25.159   2.642  50.862  1.00  0.00    +0.024 A 
ATOM     15  C   UNL     1      22.765   2.566  49.431  1.00  0.00    +0.002 A 
ATOM     16  C   UNL     1      24.970   3.472  49.755  1.00  0.00    +0.018 A 
ATOM     17  C   UNL     1      23.777   3.438  49.038  1.00  0.00    +0.016 A 
ATOM     18 Br   UNL     1      26.349   4.652  49.224  1.00  0.00    -0.051 Br
ENDBRANCH   3  12
TORSDOF 3
ENDMDL
MODEL 6
REMARK VINA RESULT:    -6.841      4.950      6.650
REMARK INTER + INTRA:          -8.420
REMARK INTER:                  -7.830
REMARK INTRA:                  -0.590
REMARK UNBOUND:                -0.579
REMARK SMILES O=[N+]([O-])c1cc(-c2cccc(Br)c2)ccc1O
REMARK SMILES IDX 4 1 5 2 6 3 14 4 15 5 16 6 2 7 1 8 3 9 17 10 7 12 8 13 13 14
REMARK SMILES IDX 9 15 11 16 10 17 12 18
REMARK H PARENT 17 11
ROOT
ATOM      1  C   UNL     1      20.518   0.006  52.576  1.00  0.00    +0.311 A 
ATOM      2  C   UNL     1      21.870   0.303  52.332  1.00  0.00    +0.098 A 
ATOM      3  C   UNL     1      22.884  -0.250  53.134  1.00  0.00    -0.011 A 
ATOM      4  C   UNL     1      22.505  -1.104  54.183  1.00  0.00    +0.013 A 
ATOM      5  C   UNL     1      21.160  -1.399  54.427  1.00  0.00    +0.054 A 
ATOM      6  C   UNL     1      20.162  -0.849  53.626  1.00  0.00    +0.194 A 
ENDROOT
BRANCH   1   7
ATOM      7  N   UNL     1      19.498   0.605  51.713  1.00  0.00    +0.066 N 
ATOM      8  O   UNL     1      19.589   1.811  51.451  1.00  0.00    -0.258 OA
ATOM      9  O   UNL     1      18.594  -0.138  51.296  1.00  0.00    -0.258 OA
ENDBRANCH   1   7
BRANCH   6  10
ATOM     10  O   UNL     1      18.884  -1.210  53.958  1.00  0.00    -0.502 OA
ATOM     11  H   UNL     1      18.242  -0.633  53.493  1.00  0.00    +0.293 HD
ENDBRANCH   6  10
BRANCH   3  12
ATOM     12  C   UNL     1      24.302   0.056  52.882  1.00  0.00    -0.017 A 
ATOM     13  C   UNL     1      25.322  -0.708  53.476  1.00  0.00    +0.009 A 
ATOM     14  C   UNL     1      24.676   1.118  52.042  1.00  0.00    +0.024 A 
ATOM     15  C   UNL     1      26.670  -0.424  53.239  1.00  0.00    +0.002 A 
ATOM     16  C   UNL     1      26.023   1.400  51.808  1.00  0.00    +0.018 A 
ATOM     17  C   UNL     1      27.022   0.634  52.403  1.00  0.00    +0.016 A 
ATOM     18 Br   UNL     1      26.495   2.839  50.676  1.00  0.00    -0.051 Br
ENDBRANCH   3  12
TORSDOF 3
ENDMDL
MODEL 7
REMARK VINA RESULT:    -6.711      3.328      5.126
REMARK INTER + INTRA:          -8.272
REMARK INTER:                  -7.734
REMARK INTRA:                  -0.537
REMARK UNBOUND:                -0.579
REMARK SMILES O=[N+]([O-])c1cc(-c2cccc(Br)c2)ccc1O
REMARK SMILES IDX 4 1 5 2 6 3 14 4 15 5 16 6 2 7 1 8 3 9 17 10 7 12 8 13 13 14
REMARK SMILES IDX 9 15 11 16 10 17 12 18
REMARK H PARENT 17 11
ROOT
ATOM      1  C   UNL     1      23.828  -0.513  54.036  1.00  0.00    +0.311 A 
ATOM      2  C   UNL     1      23.912   0.382  52.954  1.00  0.00    +0.098 A 
ATOM      3  C   UNL     1      25.126   1.015  52.637  1.00  0.00    -0.011 A 
ATOM      4  C   UNL     1      26.249   0.727  53.431  1.00  0.00    +0.013 A 
ATOM      5  C   UNL     1      26.166  -0.163  54.506  1.00  0.00    +0.054 A 
ATOM      6  C   UNL     1      24.959  -0.787  54.813  1.00  0.00    +0.194 A 
ENDROOT
BRANCH   1   7
ATOM      7  N   UNL     1      22.541  -1.148  54.327  1.00  0.00    +0.066 N 
ATOM      8  O   UNL     1      21.731  -1.278  53.400  1.00  0.00    -0.258 OA
ATOM      9  O   UNL     1      22.338  -1.518  55.495  1.00  0.00    -0.258 OA
ENDBRANCH   1   7
BRANCH   6  10
ATOM     10  O   UNL     1      24.999  -1.637  55.884  1.00  0.00    -0.502 OA
ATOM     11  H   UNL     1      25.899  -2.014  55.980  1.00  0.00    +0.293 HD
ENDBRANCH   6  10
BRANCH   3  12
ATOM     12  C   UNL     1      25.220   1.952  51.505  1.00  0.00    -0.017 A 
ATOM     13  C   UNL     1      26.469   2.414  51.051  1.00  0.00    +0.009 A 
ATOM     14  C   UNL     1      24.067   2.409  50.846  1.00  0.00    +0.024 A 
ATOM     15  C   UNL     1      26.564   3.301  49.976  1.00  0.00    +0.002 A 
ATOM     16  C   UNL     1      24.167   3.297  49.772  1.00  0.00    +0.018 A 
ATOM     17  C   UNL     1      25.410   3.745  49.334  1.00  0.00    +0.016 A 
ATOM     18 Br   UNL     1      22.596   3.899  48.907  1.00  0.00    -0.051 Br
ENDBRANCH   3  12
TORSDOF 3
ENDMDL
MODEL 8
REMARK VINA RESULT:    -6.660      2.861      3.761
REMARK INTER + INTRA:          -8.212
REMARK INTER:                  -7.620
REMARK INTRA:                  -0.592
REMARK UNBOUND:                -0.579
REMARK SMILES O=[N+]([O-])c1cc(-c2cccc(Br)c2)ccc1O
REMARK SMILES IDX 4 1 5 2 6 3 14 4 15 5 16 6 2 7 1 8 3 9 17 10 7 12 8 13 13 14
REMARK SMILES IDX 9 15 11 16 10 17 12 18
REMARK H PARENT 17 11
ROOT
ATOM      1  C   UNL     1      24.844   2.857  51.128  1.00  0.00    +0.311 A 
ATOM      2  C   UNL     1      23.812   2.080  51.685  1.00  0.00    +0.098 A 
ATOM      3  C   UNL     1      24.106   1.003  52.539  1.00  0.00    -0.011 A 
ATOM      4  C   UNL     1      25.455   0.729  52.818  1.00  0.00    +0.013 A 
ATOM      5  C   UNL     1      26.480   1.501  52.264  1.00  0.00    +0.054 A 
ATOM      6  C   UNL     1      26.182   2.568  51.420  1.00  0.00    +0.194 A 
ENDROOT
BRANCH   1   7
ATOM      7  N   UNL     1      24.489   3.969  50.243  1.00  0.00    +0.066 N 
ATOM      8  O   UNL     1      23.740   3.737  49.284  1.00  0.00    -0.258 OA
ATOM      9  O   UNL     1      24.966   5.085  50.508  1.00  0.00    -0.258 OA
ENDBRANCH   1   7
BRANCH   6  10
ATOM     10  O   UNL     1      27.265   3.251  50.940  1.00  0.00    -0.502 OA
ATOM     11  H   UNL     1      27.076   4.213  50.929  1.00  0.00    +0.293 HD
ENDBRANCH   6  10
BRANCH   3  12
ATOM     12  C   UNL     1      23.031   0.186  53.127  1.00  0.00    -0.017 A 
ATOM     13  C   UNL     1      23.295  -0.708  54.179  1.00  0.00    +0.009 A 
ATOM     14  C   UNL     1      21.711   0.278  52.654  1.00  0.00    +0.024 A 
ATOM     15  C   UNL     1      22.278  -1.484  54.742  1.00  0.00    +0.002 A 
ATOM     16  C   UNL     1      20.698  -0.500  53.218  1.00  0.00    +0.018 A 
ATOM     17  C   UNL     1      20.975  -1.380  54.260  1.00  0.00    +0.016 A 
ATOM     18 Br   UNL     1      18.931  -0.357  52.558  1.00  0.00    -0.051 Br
ENDBRANCH   3  12
TORSDOF 3
ENDMDL
MODEL 9
REMARK VINA RESULT:    -6.628      4.778      6.605
REMARK INTER + INTRA:          -8.176
REMARK INTER:                  -7.640
REMARK INTRA:                  -0.535
REMARK UNBOUND:                -0.579
REMARK SMILES O=[N+]([O-])c1cc(-c2cccc(Br)c2)ccc1O
REMARK SMILES IDX 4 1 5 2 6 3 14 4 15 5 16 6 2 7 1 8 3 9 17 10 7 12 8 13 13 14
REMARK SMILES IDX 9 15 11 16 10 17 12 18
REMARK H PARENT 17 11
ROOT
ATOM      1  C   UNL     1      21.438  -0.354  53.099  1.00  0.00    +0.311 A 
ATOM      2  C   UNL     1      22.694   0.188  52.773  1.00  0.00    +0.098 A 
ATOM      3  C   UNL     1      23.827  -0.104  53.552  1.00  0.00    -0.011 A 
ATOM      4  C   UNL     1      23.666  -0.949  54.663  1.00  0.00    +0.013 A 
ATOM      5  C   UNL     1      22.418  -1.487  54.988  1.00  0.00    +0.054 A 
ATOM      6  C   UNL     1      21.300  -1.196  54.209  1.00  0.00    +0.194 A 
ENDROOT
BRANCH   1   7
ATOM      7  N   UNL     1      20.287  -0.023  52.257  1.00  0.00    +0.066 N 
ATOM      8  O   UNL     1      20.495   0.267  51.071  1.00  0.00    -0.258 OA
ATOM      9  O   UNL     1      19.164  -0.049  52.788  1.00  0.00    -0.258 OA
ENDBRANCH   1   7
BRANCH   6  10
ATOM     10  O   UNL     1      20.134  -1.780  54.622  1.00  0.00    -0.502 OA
ATOM     11  H   UNL     1      19.518  -1.870  53.865  1.00  0.00    +0.293 HD
ENDBRANCH   6  10
BRANCH   3  12
ATOM     12  C   UNL     1      25.145   0.459  53.215  1.00  0.00    -0.017 A 
ATOM     13  C   UNL     1      25.255   1.645  52.465  1.00  0.00    +0.009 A 
ATOM     14  C   UNL     1      26.330  -0.169  53.633  1.00  0.00    +0.024 A 
ATOM     15  C   UNL     1      26.503   2.184  52.145  1.00  0.00    +0.002 A 
ATOM     16  C   UNL     1      27.575   0.373  53.310  1.00  0.00    +0.018 A 
ATOM     17  C   UNL     1      27.667   1.547  52.568  1.00  0.00    +0.016 A 
ATOM     18 Br   UNL     1      29.153  -0.498  53.884  1.00  0.00    -0.051 Br
ENDBRANCH   3  12
TORSDOF 3
ENDMDL
