REMARK SMILES Cc1cc(C)c(C(=O)N2CCN(c3cc(C(=O)O)cc(O)c3O)CC2)[nH]1
REMARK SMILES IDX 13 1 14 2 15 3 19 4 20 5 22 6 12 7 7 8 8 9 9 10 10 11 25 12
REMARK SMILES IDX 11 13 24 14 6 15 2 16 3 17 26 18 4 19 1 20 5 22 23 23 16 25
REMARK SMILES IDX 17 26 18 27 21 29
REMARK H PARENT 26 21 23 24 18 28 21 30
ROOT
ATOM      1  C   UNL     1      -2.646   0.647   0.157  1.00  0.00    +0.084 A 
ATOM      2  C   UNL     1      -3.369  -0.352   0.832  1.00  0.00    +0.045 A 
ATOM      3  C   UNL     1      -4.665  -0.740   0.436  1.00  0.00    +0.065 A 
ATOM      4  C   UNL     1      -5.290  -0.106  -0.637  1.00  0.00    +0.066 A 
ATOM      5  C   UNL     1      -4.612   0.907  -1.291  1.00  0.00    +0.160 A 
ATOM      6  C   UNL     1      -3.309   1.263  -0.924  1.00  0.00    +0.181 A 
ENDROOT
BRANCH   1   7
ATOM      7  N   UNL     1      -1.361   1.024   0.545  1.00  0.00    -0.365 N 
ATOM      8  C   UNL     1       2.257   0.073   1.395  1.00  0.00    +0.270 C 
ATOM      9  O   UNL     1       2.378   0.687   2.454  1.00  0.00    -0.267 OA
ATOM     10  N   UNL     1       1.041  -0.506   1.021  1.00  0.00    -0.334 N 
ATOM     11  C   UNL     1       0.534  -0.334  -0.350  1.00  0.00    +0.141 C 
ATOM     12  C   UNL     1      -0.032  -0.491   2.020  1.00  0.00    +0.141 C 
ATOM     13  C   UNL     1      -0.293   0.967  -0.482  1.00  0.00    +0.138 C 
ATOM     14  C   UNL     1      -0.871   0.799   1.925  1.00  0.00    +0.138 C 
BRANCH   8  15
ATOM     15  C   UNL     1       3.379  -0.061   0.484  1.00  0.00    +0.107 A 
ATOM     16  C   UNL     1       5.274   0.606  -0.553  1.00  0.00    +0.012 A 
ATOM     17  C   UNL     1       4.973  -0.658  -1.010  1.00  0.00    +0.027 A 
ATOM     18  N   UNL     1       4.328   0.933   0.383  1.00  0.00    -0.354 N 
ATOM     19  C   UNL     1       3.801  -1.107  -0.334  1.00  0.00    -0.020 A 
ATOM     20  C   UNL     1       6.386   1.526  -0.893  1.00  0.00    +0.064 C 
ATOM     21  H   UNL     1       4.303   1.786   0.928  1.00  0.00    +0.166 HD
ATOM     22  C   UNL     1       3.194  -2.458  -0.481  1.00  0.00    +0.047 C 
ENDBRANCH   8  15
ENDBRANCH   1   7
BRANCH   6  23
ATOM     23  O   UNL     1      -2.703   2.262  -1.650  1.00  0.00    -0.503 OA
ATOM     24  H   UNL     1      -2.996   2.138  -2.570  1.00  0.00    +0.293 HD
ENDBRANCH   6  23
BRANCH   3  25
ATOM     25  C   UNL     1      -5.330  -1.822   1.201  1.00  0.00    +0.335 C 
ATOM     26  O   UNL     1      -4.849  -2.428   2.140  1.00  0.00    -0.246 OA
BRANCH  25  27
ATOM     27  O   UNL     1      -6.567  -2.096   0.752  1.00  0.00    -0.478 OA
ATOM     28  H   UNL     1      -6.880  -2.815   1.341  1.00  0.00    +0.297 HD
ENDBRANCH  25  27
ENDBRANCH   3  25
BRANCH   5  29
ATOM     29  O   UNL     1      -5.257   1.594  -2.282  1.00  0.00    -0.504 OA
ATOM     30  H   UNL     1      -5.046   2.535  -2.130  1.00  0.00    +0.293 HD
ENDBRANCH   5  29
TORSDOF 6
