REMARK SMILES Cc1cccc(-c2ncnc3c2C(=C(C#N)C(N)=C(C#N)C#N)C(=O)N3)c1
REMARK SMILES IDX 7 1 8 2 9 3 10 4 11 5 12 6 13 7 14 8 15 9 16 10 24 11 25 12
REMARK SMILES IDX 26 13 6 15 2 16 3 17 27 18 4 19 5 20 1 21 17 22 19 23 20 24
REMARK SMILES IDX 22 25 21 26 23 27 18 28
REMARK H PARENT 26 14 18 29 18 30
ROOT
ATOM      1  C   UNL     1      -0.727  -1.420  -1.349  1.00  0.00    +0.084 A 
ATOM      2  N   UNL     1      -1.123  -2.408  -2.197  1.00  0.00    -0.236 NA
ATOM      3  C   UNL     1      -0.197  -3.284  -2.626  1.00  0.00    +0.224 A 
ATOM      4  N   UNL     1       1.089  -3.297  -2.268  1.00  0.00    -0.218 NA
ATOM      5  C   UNL     1       1.421  -2.286  -1.468  1.00  0.00    +0.145 A 
ATOM      6  C   UNL     1       0.597  -1.266  -1.015  1.00  0.00    +0.058 A 
ATOM      7  C   UNL     1       1.447  -0.385  -0.192  1.00  0.00    +0.073 C 
ATOM      8  C   UNL     1       1.306   0.886   0.245  1.00  0.00    +0.091 C 
ATOM      9  C   UNL     1       0.200   1.713  -0.131  1.00  0.00    +0.102 C 
ATOM     10  N   UNL     1      -0.628   2.455  -0.460  1.00  0.00    -0.192 NA
ATOM     11  C   UNL     1       2.766  -1.110  -0.048  1.00  0.00    +0.259 C 
ATOM     12  O   UNL     1       3.717  -0.797   0.641  1.00  0.00    -0.269 OA
ATOM     13  N   UNL     1       2.679  -2.185  -0.896  1.00  0.00    -0.306 N 
ATOM     14  H   UNL     1       3.408  -2.866  -1.046  1.00  0.00    +0.171 HD
ENDROOT
BRANCH   1  15
ATOM     15  C   UNL     1      -1.843  -0.678  -0.755  1.00  0.00    +0.001 A 
ATOM     16  C   UNL     1      -3.133   0.018   1.209  1.00  0.00    -0.050 A 
ATOM     17  C   UNL     1      -4.017   0.709   0.375  1.00  0.00    +0.003 A 
ATOM     18  C   UNL     1      -2.050  -0.666   0.638  1.00  0.00    +0.013 A 
ATOM     19  C   UNL     1      -3.843   0.687  -1.008  1.00  0.00    +0.001 A 
ATOM     20  C   UNL     1      -2.771  -0.008  -1.568  1.00  0.00    +0.010 A 
ATOM     21  C   UNL     1      -3.309   0.057   2.698  1.00  0.00    +0.044 C 
ENDBRANCH   1  15
BRANCH   8  22
ATOM     22  C   UNL     1       2.329   1.597   1.049  1.00  0.00    +0.079 C 
ATOM     23  C   UNL     1       3.353   2.263   0.448  1.00  0.00    +0.153 C 
ATOM     24  C   UNL     1       3.506   2.285  -0.968  1.00  0.00    +0.113 C 
ATOM     25  C   UNL     1       4.332   2.948   1.221  1.00  0.00    +0.113 C 
ATOM     26  N   UNL     1       3.591   2.259  -2.125  1.00  0.00    -0.192 NA
ATOM     27  N   UNL     1       5.120   3.496   1.875  1.00  0.00    -0.192 NA
BRANCH  22  28
ATOM     28  N   UNL     1       2.132   1.515   2.429  1.00  0.00    -0.396 N 
ATOM     29  H   UNL     1       2.952   1.735   2.997  1.00  0.00    +0.156 HD
ATOM     30  H   UNL     1       1.713   0.640   2.741  1.00  0.00    +0.156 HD
ENDBRANCH  22  28
ENDBRANCH   8  22
TORSDOF 3
