REMARK SMILES O=C(O)c1cc(O)c(O)c(-c2cccc(Br)c2)c1
REMARK SMILES IDX 4 1 5 2 6 3 8 4 10 5 18 6 2 7 1 8 3 9 7 11 11 13 12 14 17 15
REMARK SMILES IDX 13 16 15 17 14 18 16 19 9 20
REMARK H PARENT 3 10 7 12 9 21
ROOT
ATOM      1  C   UNL     1      -2.489  -0.542  -0.020  1.00  0.00    +0.064 A 
ATOM      2  C   UNL     1      -2.955   0.763  -0.197  1.00  0.00    +0.065 A 
ATOM      3  C   UNL     1      -2.037   1.794  -0.316  1.00  0.00    +0.158 A 
ATOM      4  C   UNL     1      -0.663   1.553  -0.263  1.00  0.00    +0.165 A 
ATOM      5  C   UNL     1      -0.169   0.251  -0.094  1.00  0.00    +0.028 A 
ATOM      6  C   UNL     1      -1.106  -0.793   0.031  1.00  0.00    +0.028 A 
ENDROOT
BRANCH   1   7
ATOM      7  C   UNL     1      -3.488  -1.631   0.107  1.00  0.00    +0.335 C 
ATOM      8  O   UNL     1      -4.697  -1.502   0.061  1.00  0.00    -0.246 OA
BRANCH   7   9
ATOM      9  O   UNL     1      -2.922  -2.837   0.287  1.00  0.00    -0.478 OA
ATOM     10  H   UNL     1      -3.689  -3.445   0.354  1.00  0.00    +0.297 HD
ENDBRANCH   7   9
ENDBRANCH   1   7
BRANCH   3  11
ATOM     11  O   UNL     1      -2.495   3.071  -0.483  1.00  0.00    -0.504 OA
ATOM     12  H   UNL     1      -1.688   3.620  -0.540  1.00  0.00    +0.293 HD
ENDBRANCH   3  11
BRANCH   5  13
ATOM     13  C   UNL     1       1.267  -0.054  -0.054  1.00  0.00    -0.013 A 
ATOM     14  C   UNL     1       2.051   0.035  -1.216  1.00  0.00    +0.009 A 
ATOM     15  C   UNL     1       1.885  -0.439   1.145  1.00  0.00    +0.024 A 
ATOM     16  C   UNL     1       3.419  -0.246  -1.181  1.00  0.00    +0.002 A 
ATOM     17  C   UNL     1       3.252  -0.720   1.175  1.00  0.00    +0.018 A 
ATOM     18  C   UNL     1       4.021  -0.624   0.018  1.00  0.00    +0.016 A 
ATOM     19 Br   UNL     1       4.067  -1.234   2.801  1.00  0.00    -0.051 Br
ENDBRANCH   5  13
BRANCH   4  20
ATOM     20  O   UNL     1       0.147   2.657  -0.372  1.00  0.00    -0.504 OA
ATOM     21  H   UNL     1       1.067   2.379  -0.215  1.00  0.00    +0.293 HD
ENDBRANCH   4  20
TORSDOF 5
