REMARK SMILES COc1ccc2c(ccn2C=C(N)C(C#N)=C(C#N)C#N)c1
REMARK SMILES IDX 3 1 4 2 5 3 6 4 7 5 8 6 9 7 10 8 22 9 2 10 1 11 11 12 12 13
REMARK SMILES IDX 13 14 14 17 15 18 17 19 16 20 18 21 20 22 19 23 21 24
REMARK H PARENT 13 15 13 16
ROOT
ATOM      1  C   UNL     1       3.567  -0.642  -0.451  1.00  0.00    +0.119 A 
ATOM      2  C   UNL     1       2.881   0.014  -1.467  1.00  0.00    +0.048 A 
ATOM      3  C   UNL     1       1.544   0.404  -1.303  1.00  0.00    +0.031 A 
ATOM      4  C   UNL     1       0.896   0.123  -0.083  1.00  0.00    +0.053 A 
ATOM      5  C   UNL     1       1.571  -0.542   0.943  1.00  0.00    +0.004 A 
ATOM      6  C   UNL     1       0.668  -0.680   2.018  1.00  0.00    +0.029 A 
ATOM      7  C   UNL     1      -0.520  -0.102   1.639  1.00  0.00    +0.092 A 
ATOM      8  N   UNL     1      -0.417   0.381   0.346  1.00  0.00    -0.321 N 
ATOM      9  C   UNL     1       2.916  -0.922   0.755  1.00  0.00    +0.056 A 
ENDROOT
BRANCH   1  10
ATOM     10  O   UNL     1       4.868  -1.065  -0.501  1.00  0.00    -0.497 OA
ATOM     11  C   UNL     1       5.577  -0.829  -1.711  1.00  0.00    +0.278 C 
ENDBRANCH   1  10
BRANCH   8  12
ATOM     12  C   UNL     1      -1.395   1.035  -0.426  1.00  0.00    +0.118 C 
ATOM     13  C   UNL     1      -2.722   1.214  -0.248  1.00  0.00    +0.068 C 
BRANCH  13  14
ATOM     14  N   UNL     1      -3.463   1.920  -1.185  1.00  0.00    -0.396 N 
ATOM     15  H   UNL     1      -4.245   2.454  -0.803  1.00  0.00    +0.156 HD
ATOM     16  H   UNL     1      -2.908   2.499  -1.815  1.00  0.00    +0.156 HD
ENDBRANCH  13  14
BRANCH  13  17
ATOM     17  C   UNL     1      -3.505   0.614   0.835  1.00  0.00    +0.105 C 
ATOM     18  C   UNL     1      -3.829   1.482   1.926  1.00  0.00    +0.104 C 
ATOM     19  C   UNL     1      -3.943  -0.665   0.798  1.00  0.00    +0.149 C 
ATOM     20  N   UNL     1      -4.097   2.191   2.804  1.00  0.00    -0.192 NA
ATOM     21  C   UNL     1      -3.653  -1.515  -0.309  1.00  0.00    +0.112 C 
ATOM     22  C   UNL     1      -4.719  -1.217   1.855  1.00  0.00    +0.112 C 
ATOM     23  N   UNL     1      -3.414  -2.211  -1.205  1.00  0.00    -0.192 NA
ATOM     24  N   UNL     1      -5.350  -1.658   2.722  1.00  0.00    -0.192 NA
ENDBRANCH  13  17
ENDBRANCH   8  12
TORSDOF 4
