REMARK SMILES Oc1cc(-c2ccccc2)cc(O)c1O
REMARK SMILES IDX 2 1 3 2 4 3 11 4 12 5 14 6 1 7 15 9 5 11 6 12 10 13 7 14
REMARK SMILES IDX 9 15 8 16 13 17
REMARK H PARENT 1 8 15 10 13 18
ROOT
ATOM      1  C   UNL     1       2.107  -0.774   1.196  1.00  0.00    +0.162 A 
ATOM      2  C   UNL     1       0.734  -0.725   0.963  1.00  0.00    +0.059 A 
ATOM      3  C   UNL     1       0.221   0.032  -0.111  1.00  0.00    -0.011 A 
ATOM      4  C   UNL     1       1.125   0.730  -0.936  1.00  0.00    +0.059 A 
ATOM      5  C   UNL     1       2.491   0.668  -0.690  1.00  0.00    +0.162 A 
ATOM      6  C   UNL     1       2.981  -0.080   0.370  1.00  0.00    +0.200 A 
ENDROOT
BRANCH   1   7
ATOM      7  O   UNL     1       2.642  -1.492   2.229  1.00  0.00    -0.504 OA
ATOM      8  H   UNL     1       1.911  -1.904   2.723  1.00  0.00    +0.293 HD
ENDBRANCH   1   7
BRANCH   6   9
ATOM      9  O   UNL     1       4.330  -0.123   0.590  1.00  0.00    -0.502 OA
ATOM     10  H   UNL     1       4.425  -0.700   1.376  1.00  0.00    +0.293 HD
ENDBRANCH   6   9
BRANCH   3  11
ATOM     11  C   UNL     1      -1.229   0.093  -0.363  1.00  0.00    -0.018 A 
ATOM     12  C   UNL     1      -1.986  -1.078  -0.529  1.00  0.00    +0.009 A 
ATOM     13  C   UNL     1      -1.896   1.327  -0.442  1.00  0.00    +0.009 A 
ATOM     14  C   UNL     1      -3.362  -1.019  -0.765  1.00  0.00    +0.001 A 
ATOM     15  C   UNL     1      -3.272   1.388  -0.677  1.00  0.00    +0.001 A 
ATOM     16  C   UNL     1      -4.005   0.214  -0.838  1.00  0.00    +0.000 A 
ENDBRANCH   3  11
BRANCH   5  17
ATOM     17  O   UNL     1       3.352   1.350  -1.500  1.00  0.00    -0.504 OA
ATOM     18  H   UNL     1       4.239   1.154  -1.136  1.00  0.00    +0.293 HD
ENDBRANCH   5  17
TORSDOF 4
