MODEL 1
REMARK VINA RESULT:    -9.085      0.000      0.000
REMARK INTER + INTRA:         -13.010
REMARK INTER:                 -12.006
REMARK INTRA:                  -1.003
REMARK UNBOUND:                -1.003
REMARK SMILES Cc1cccc(C(=O)N(C)c2ccc(-c3cc(O)ccc3[N+](=O)[O-])[nH]2)c1
REMARK SMILES IDX 11 1 12 2 13 3 14 4 25 5 9 7 10 8 7 9 8 10 6 11 2 12 3 13
REMARK SMILES IDX 26 14 4 15 5 16 1 17 15 18 16 19 21 20 17 21 20 22 19 23
REMARK SMILES IDX 22 24 23 25 24 26 18 27
REMARK H PARENT 25 6 18 28
ROOT
ATOM      1  C   UNL     1      23.963   1.406  51.907  1.00  0.00    +0.113 A 
ATOM      2  C   UNL     1      23.435   0.641  52.930  1.00  0.00    +0.047 A 
ATOM      3  C   UNL     1      24.482  -0.117  53.512  1.00  0.00    +0.031 A 
ATOM      4  C   UNL     1      25.650   0.200  52.849  1.00  0.00    +0.054 A 
ATOM      5  N   UNL     1      25.312   1.122  51.883  1.00  0.00    -0.341 N 
ATOM      6  H   UNL     1      25.975   1.526  51.239  1.00  0.00    +0.168 HD
ENDROOT
BRANCH   1   7
ATOM      7  N   UNL     1      23.380   2.331  51.019  1.00  0.00    -0.297 N 
ATOM      8  C   UNL     1      22.636   1.876  49.840  1.00  0.00    +0.155 C 
BRANCH   7   9
ATOM      9  C   UNL     1      23.509   3.708  51.310  1.00  0.00    +0.259 C 
ATOM     10  O   UNL     1      23.078   4.298  52.299  1.00  0.00    -0.269 OA
BRANCH   9  11
ATOM     11  C   UNL     1      24.247   4.556  50.345  1.00  0.00    +0.040 A 
ATOM     12  C   UNL     1      26.264   5.059  49.094  1.00  0.00    -0.050 A 
ATOM     13  C   UNL     1      25.622   6.183  48.555  1.00  0.00    +0.003 A 
ATOM     14  C   UNL     1      25.565   4.241  49.990  1.00  0.00    +0.017 A 
ATOM     15  C   UNL     1      24.316   6.509  48.932  1.00  0.00    +0.001 A 
ATOM     16  C   UNL     1      23.629   5.700  49.836  1.00  0.00    +0.014 A 
ATOM     17  C   UNL     1      27.663   4.712  48.679  1.00  0.00    +0.044 C 
ENDBRANCH   9  11
ENDBRANCH   7   9
ENDBRANCH   1   7
BRANCH   4  18
ATOM     18  C   UNL     1      27.019  -0.273  53.045  1.00  0.00    +0.079 A 
ATOM     19  C   UNL     1      27.263  -1.654  53.092  1.00  0.00    +0.063 A 
ATOM     20  C   UNL     1      28.128   0.580  53.165  1.00  0.00    +0.278 A 
ATOM     21  C   UNL     1      28.560  -2.142  53.248  1.00  0.00    +0.116 A 
ATOM     22  C   UNL     1      29.435   0.093  53.318  1.00  0.00    +0.090 A 
ATOM     23  C   UNL     1      29.650  -1.283  53.359  1.00  0.00    +0.053 A 
BRANCH  20  24
ATOM     24  N   UNL     1      27.953   2.016  53.184  1.00  0.00    +0.063 N 
ATOM     25  O   UNL     1      27.780   2.572  52.091  1.00  0.00    -0.258 OA
ATOM     26  O   UNL     1      28.056   2.581  54.281  1.00  0.00    -0.258 OA
ENDBRANCH  20  24
BRANCH  21  27
ATOM     27  O   UNL     1      28.721  -3.496  53.285  1.00  0.00    -0.508 OA
ATOM     28  H   UNL     1      29.380  -3.759  52.621  1.00  0.00    +0.293 HD
ENDBRANCH  21  27
ENDBRANCH   4  18
TORSDOF 6
ENDMDL
MODEL 2
REMARK VINA RESULT:    -8.595      1.519      2.319
REMARK INTER + INTRA:         -12.361
REMARK INTER:                 -11.379
REMARK INTRA:                  -0.983
REMARK UNBOUND:                -1.003
REMARK SMILES Cc1cccc(C(=O)N(C)c2ccc(-c3cc(O)ccc3[N+](=O)[O-])[nH]2)c1
REMARK SMILES IDX 11 1 12 2 13 3 14 4 25 5 9 7 10 8 7 9 8 10 6 11 2 12 3 13
REMARK SMILES IDX 26 14 4 15 5 16 1 17 15 18 16 19 21 20 17 21 20 22 19 23
REMARK SMILES IDX 22 24 23 25 24 26 18 27
REMARK H PARENT 25 6 18 28
ROOT
ATOM      1  C   UNL     1      23.772   1.455  52.196  1.00  0.00    +0.113 A 
ATOM      2  C   UNL     1      23.210   0.363  52.831  1.00  0.00    +0.047 A 
ATOM      3  C   UNL     1      24.253  -0.508  53.237  1.00  0.00    +0.031 A 
ATOM      4  C   UNL     1      25.450   0.063  52.859  1.00  0.00    +0.054 A 
ATOM      5  N   UNL     1      25.135   1.249  52.231  1.00  0.00    -0.341 N 
ATOM      6  H   UNL     1      25.823   1.876  51.844  1.00  0.00    +0.168 HD
ENDROOT
BRANCH   1   7
ATOM      7  N   UNL     1      23.207   2.607  51.616  1.00  0.00    -0.297 N 
ATOM      8  C   UNL     1      21.894   3.098  52.047  1.00  0.00    +0.155 C 
BRANCH   7   9
ATOM      9  C   UNL     1      23.950   3.289  50.628  1.00  0.00    +0.259 C 
ATOM     10  O   UNL     1      25.087   3.744  50.740  1.00  0.00    -0.269 OA
BRANCH   9  11
ATOM     11  C   UNL     1      23.325   3.484  49.298  1.00  0.00    +0.040 A 
ATOM     12  C   UNL     1      22.644   4.943  47.483  1.00  0.00    -0.050 A 
ATOM     13  C   UNL     1      22.117   3.829  46.816  1.00  0.00    +0.003 A 
ATOM     14  C   UNL     1      23.256   4.763  48.730  1.00  0.00    +0.017 A 
ATOM     15  C   UNL     1      22.165   2.559  47.398  1.00  0.00    +0.001 A 
ATOM     16  C   UNL     1      22.761   2.385  48.646  1.00  0.00    +0.014 A 
ATOM     17  C   UNL     1      22.596   6.301  46.849  1.00  0.00    +0.044 C 
ENDBRANCH   9  11
ENDBRANCH   7   9
ENDBRANCH   1   7
BRANCH   4  18
ATOM     18  C   UNL     1      26.827  -0.394  53.038  1.00  0.00    +0.079 A 
ATOM     19  C   UNL     1      27.090  -1.772  53.054  1.00  0.00    +0.063 A 
ATOM     20  C   UNL     1      27.924   0.471  53.170  1.00  0.00    +0.278 A 
ATOM     21  C   UNL     1      28.394  -2.245  53.193  1.00  0.00    +0.116 A 
ATOM     22  C   UNL     1      29.239   0.000  53.305  1.00  0.00    +0.090 A 
ATOM     23  C   UNL     1      29.472  -1.373  53.316  1.00  0.00    +0.053 A 
BRANCH  20  24
ATOM     24  N   UNL     1      27.729   1.904  53.220  1.00  0.00    +0.063 N 
ATOM     25  O   UNL     1      27.327   2.377  54.291  1.00  0.00    -0.258 OA
ATOM     26  O   UNL     1      27.916   2.534  52.170  1.00  0.00    -0.258 OA
ENDBRANCH  20  24
BRANCH  21  27
ATOM     27  O   UNL     1      28.574  -3.598  53.201  1.00  0.00    -0.508 OA
ATOM     28  H   UNL     1      29.069  -3.859  52.406  1.00  0.00    +0.293 HD
ENDBRANCH  21  27
ENDBRANCH   4  18
TORSDOF 6
ENDMDL
MODEL 3
REMARK VINA RESULT:    -8.227      2.282      4.246
REMARK INTER + INTRA:         -11.876
REMARK INTER:                 -11.007
REMARK INTRA:                  -0.869
REMARK UNBOUND:                -1.003
REMARK SMILES Cc1cccc(C(=O)N(C)c2ccc(-c3cc(O)ccc3[N+](=O)[O-])[nH]2)c1
REMARK SMILES IDX 11 1 12 2 13 3 14 4 25 5 9 7 10 8 7 9 8 10 6 11 2 12 3 13
REMARK SMILES IDX 26 14 4 15 5 16 1 17 15 18 16 19 21 20 17 21 20 22 19 23
REMARK SMILES IDX 22 24 23 25 24 26 18 27
REMARK H PARENT 25 6 18 28
ROOT
ATOM      1  C   UNL     1      23.718   1.268  52.154  1.00  0.00    +0.113 A 
ATOM      2  C   UNL     1      23.243   0.422  53.138  1.00  0.00    +0.047 A 
ATOM      3  C   UNL     1      24.327  -0.344  53.637  1.00  0.00    +0.031 A 
ATOM      4  C   UNL     1      25.464   0.049  52.963  1.00  0.00    +0.054 A 
ATOM      5  N   UNL     1      25.072   1.024  52.071  1.00  0.00    -0.341 N 
ATOM      6  H   UNL     1      25.704   1.489  51.438  1.00  0.00    +0.168 HD
ENDROOT
BRANCH   1   7
ATOM      7  N   UNL     1      23.084   2.233  51.348  1.00  0.00    -0.297 N 
ATOM      8  C   UNL     1      23.390   3.659  51.503  1.00  0.00    +0.155 C 
BRANCH   7   9
ATOM      9  C   UNL     1      22.167   1.788  50.371  1.00  0.00    +0.259 C 
ATOM     10  O   UNL     1      22.416   1.484  49.206  1.00  0.00    -0.269 OA
BRANCH   9  11
ATOM     11  C   UNL     1      20.744   1.652  50.764  1.00  0.00    +0.040 A 
ATOM     12  C   UNL     1      18.594   2.653  51.276  1.00  0.00    -0.050 A 
ATOM     13  C   UNL     1      18.085   1.373  51.533  1.00  0.00    +0.003 A 
ATOM     14  C   UNL     1      19.932   2.787  50.883  1.00  0.00    +0.017 A 
ATOM     15  C   UNL     1      18.905   0.245  51.438  1.00  0.00    +0.001 A 
ATOM     16  C   UNL     1      20.241   0.384  51.061  1.00  0.00    +0.014 A 
ATOM     17  C   UNL     1      17.706   3.858  51.373  1.00  0.00    +0.044 C 
ENDBRANCH   9  11
ENDBRANCH   7   9
ENDBRANCH   1   7
BRANCH   4  18
ATOM     18  C   UNL     1      26.851  -0.396  53.087  1.00  0.00    +0.079 A 
ATOM     19  C   UNL     1      27.123  -1.772  53.128  1.00  0.00    +0.063 A 
ATOM     20  C   UNL     1      27.948   0.477  53.141  1.00  0.00    +0.278 A 
ATOM     21  C   UNL     1      28.436  -2.236  53.216  1.00  0.00    +0.116 A 
ATOM     22  C   UNL     1      29.271   0.016  53.224  1.00  0.00    +0.090 A 
ATOM     23  C   UNL     1      29.513  -1.355  53.262  1.00  0.00    +0.053 A 
BRANCH  20  24
ATOM     24  N   UNL     1      27.748   1.910  53.160  1.00  0.00    +0.063 N 
ATOM     25  O   UNL     1      27.689   2.481  52.063  1.00  0.00    -0.258 OA
ATOM     26  O   UNL     1      27.717   2.459  54.270  1.00  0.00    -0.258 OA
ENDBRANCH  20  24
BRANCH  21  27
ATOM     27  O   UNL     1      28.624  -3.586  53.252  1.00  0.00    -0.508 OA
ATOM     28  H   UNL     1      29.577  -3.776  53.281  1.00  0.00    +0.293 HD
ENDBRANCH  21  27
ENDBRANCH   4  18
TORSDOF 6
ENDMDL
MODEL 4
REMARK VINA RESULT:    -8.012      2.294      5.071
REMARK INTER + INTRA:         -11.591
REMARK INTER:                 -10.655
REMARK INTRA:                  -0.937
REMARK UNBOUND:                -1.003
REMARK SMILES Cc1cccc(C(=O)N(C)c2ccc(-c3cc(O)ccc3[N+](=O)[O-])[nH]2)c1
REMARK SMILES IDX 11 1 12 2 13 3 14 4 25 5 9 7 10 8 7 9 8 10 6 11 2 12 3 13
REMARK SMILES IDX 26 14 4 15 5 16 1 17 15 18 16 19 21 20 17 21 20 22 19 23
REMARK SMILES IDX 22 24 23 25 24 26 18 27
REMARK H PARENT 25 6 18 28
ROOT
ATOM      1  C   UNL     1      24.225   2.374  50.897  1.00  0.00    +0.113 A 
ATOM      2  C   UNL     1      25.172   3.061  50.160  1.00  0.00    +0.047 A 
ATOM      3  C   UNL     1      26.443   2.846  50.750  1.00  0.00    +0.031 A 
ATOM      4  C   UNL     1      26.268   2.015  51.837  1.00  0.00    +0.054 A 
ATOM      5  N   UNL     1      24.918   1.744  51.907  1.00  0.00    -0.341 N 
ATOM      6  H   UNL     1      24.501   1.161  52.617  1.00  0.00    +0.168 HD
ENDROOT
BRANCH   1   7
ATOM      7  N   UNL     1      22.830   2.237  50.752  1.00  0.00    -0.297 N 
ATOM      8  C   UNL     1      22.243   1.845  49.466  1.00  0.00    +0.155 C 
BRANCH   7   9
ATOM      9  C   UNL     1      22.017   2.461  51.885  1.00  0.00    +0.259 C 
ATOM     10  O   UNL     1      21.767   3.542  52.414  1.00  0.00    -0.269 OA
BRANCH   9  11
ATOM     11  C   UNL     1      21.372   1.287  52.520  1.00  0.00    +0.040 A 
ATOM     12  C   UNL     1      21.478  -0.627  54.007  1.00  0.00    -0.050 A 
ATOM     13  C   UNL     1      20.150  -0.929  53.675  1.00  0.00    +0.003 A 
ATOM     14  C   UNL     1      22.086   0.493  53.427  1.00  0.00    +0.017 A 
ATOM     15  C   UNL     1      19.449  -0.150  52.751  1.00  0.00    +0.001 A 
ATOM     16  C   UNL     1      20.063   0.956  52.163  1.00  0.00    +0.014 A 
ATOM     17  C   UNL     1      22.221  -1.463  55.006  1.00  0.00    +0.044 C 
ENDBRANCH   9  11
ENDBRANCH   7   9
ENDBRANCH   1   7
BRANCH   4  18
ATOM     18  C   UNL     1      27.234   1.466  52.787  1.00  0.00    +0.079 A 
ATOM     19  C   UNL     1      28.194   2.319  53.352  1.00  0.00    +0.063 A 
ATOM     20  C   UNL     1      27.245   0.124  53.198  1.00  0.00    +0.278 A 
ATOM     21  C   UNL     1      29.114   1.837  54.283  1.00  0.00    +0.116 A 
ATOM     22  C   UNL     1      28.165  -0.365  54.139  1.00  0.00    +0.090 A 
ATOM     23  C   UNL     1      29.108   0.504  54.685  1.00  0.00    +0.053 A 
BRANCH  20  24
ATOM     24  N   UNL     1      26.324  -0.831  52.620  1.00  0.00    +0.063 N 
ATOM     25  O   UNL     1      26.714  -1.448  51.620  1.00  0.00    -0.258 OA
ATOM     26  O   UNL     1      25.198  -0.906  53.130  1.00  0.00    -0.258 OA
ENDBRANCH  20  24
BRANCH  21  27
ATOM     27  O   UNL     1      30.018   2.724  54.789  1.00  0.00    -0.508 OA
ATOM     28  H   UNL     1      30.050   3.510  54.218  1.00  0.00    +0.293 HD
ENDBRANCH  21  27
ENDBRANCH   4  18
TORSDOF 6
ENDMDL
MODEL 5
REMARK VINA RESULT:    -7.919      1.659      2.297
REMARK INTER + INTRA:         -11.469
REMARK INTER:                 -11.111
REMARK INTRA:                  -0.358
REMARK UNBOUND:                -1.003
REMARK SMILES Cc1cccc(C(=O)N(C)c2ccc(-c3cc(O)ccc3[N+](=O)[O-])[nH]2)c1
REMARK SMILES IDX 11 1 12 2 13 3 14 4 25 5 9 7 10 8 7 9 8 10 6 11 2 12 3 13
REMARK SMILES IDX 26 14 4 15 5 16 1 17 15 18 16 19 21 20 17 21 20 22 19 23
REMARK SMILES IDX 22 24 23 25 24 26 18 27
REMARK H PARENT 25 6 18 28
ROOT
ATOM      1  C   UNL     1      23.804   1.604  51.822  1.00  0.00    +0.113 A 
ATOM      2  C   UNL     1      23.193   0.738  52.710  1.00  0.00    +0.047 A 
ATOM      3  C   UNL     1      24.183  -0.113  53.263  1.00  0.00    +0.031 A 
ATOM      4  C   UNL     1      25.398   0.246  52.718  1.00  0.00    +0.054 A 
ATOM      5  N   UNL     1      25.145   1.286  51.850  1.00  0.00    -0.341 N 
ATOM      6  H   UNL     1      25.857   1.744  51.303  1.00  0.00    +0.168 HD
ENDROOT
BRANCH   1   7
ATOM      7  N   UNL     1      23.300   2.644  51.017  1.00  0.00    -0.297 N 
ATOM      8  C   UNL     1      23.590   2.690  49.580  1.00  0.00    +0.155 C 
BRANCH   7   9
ATOM      9  C   UNL     1      22.487   3.626  51.626  1.00  0.00    +0.259 C 
ATOM     10  O   UNL     1      21.567   3.436  52.418  1.00  0.00    -0.269 OA
BRANCH   9  11
ATOM     11  C   UNL     1      22.755   5.047  51.304  1.00  0.00    +0.040 A 
ATOM     12  C   UNL     1      22.057   7.153  50.322  1.00  0.00    -0.050 A 
ATOM     13  C   UNL     1      23.294   7.705  50.682  1.00  0.00    +0.003 A 
ATOM     14  C   UNL     1      21.789   5.817  50.643  1.00  0.00    +0.017 A 
ATOM     15  C   UNL     1      24.265   6.927  51.319  1.00  0.00    +0.001 A 
ATOM     16  C   UNL     1      24.001   5.592  51.623  1.00  0.00    +0.014 A 
ATOM     17  C   UNL     1      21.017   7.996  49.646  1.00  0.00    +0.044 C 
ENDBRANCH   9  11
ENDBRANCH   7   9
ENDBRANCH   1   7
BRANCH   4  18
ATOM     18  C   UNL     1      26.742  -0.285  52.942  1.00  0.00    +0.079 A 
ATOM     19  C   UNL     1      26.957  -1.666  52.818  1.00  0.00    +0.063 A 
ATOM     20  C   UNL     1      27.853   0.514  53.253  1.00  0.00    +0.278 A 
ATOM     21  C   UNL     1      28.231  -2.206  52.996  1.00  0.00    +0.116 A 
ATOM     22  C   UNL     1      29.138  -0.024  53.428  1.00  0.00    +0.090 A 
ATOM     23  C   UNL     1      29.324  -1.399  53.297  1.00  0.00    +0.053 A 
BRANCH  20  24
ATOM     24  N   UNL     1      27.703   1.938  53.455  1.00  0.00    +0.063 N 
ATOM     25  O   UNL     1      26.827   2.301  54.252  1.00  0.00    -0.258 OA
ATOM     26  O   UNL     1      28.414   2.682  52.766  1.00  0.00    -0.258 OA
ENDBRANCH  20  24
BRANCH  21  27
ATOM     27  O   UNL     1      28.365  -3.557  52.860  1.00  0.00    -0.508 OA
ATOM     28  H   UNL     1      27.715  -3.879  52.212  1.00  0.00    +0.293 HD
ENDBRANCH  21  27
ENDBRANCH   4  18
TORSDOF 6
ENDMDL
MODEL 6
REMARK VINA RESULT:    -7.909      3.317      7.027
REMARK INTER + INTRA:         -11.455
REMARK INTER:                 -10.263
REMARK INTRA:                  -1.192
REMARK UNBOUND:                -1.003
REMARK SMILES Cc1cccc(C(=O)N(C)c2ccc(-c3cc(O)ccc3[N+](=O)[O-])[nH]2)c1
REMARK SMILES IDX 11 1 12 2 13 3 14 4 25 5 9 7 10 8 7 9 8 10 6 11 2 12 3 13
REMARK SMILES IDX 26 14 4 15 5 16 1 17 15 18 16 19 21 20 17 21 20 22 19 23
REMARK SMILES IDX 22 24 23 25 24 26 18 27
REMARK H PARENT 25 6 18 28
ROOT
ATOM      1  C   UNL     1      21.107   1.796  49.975  1.00  0.00    +0.113 A 
ATOM      2  C   UNL     1      21.328   1.348  48.686  1.00  0.00    +0.047 A 
ATOM      3  C   UNL     1      22.386   2.105  48.121  1.00  0.00    +0.031 A 
ATOM      4  C   UNL     1      22.816   3.003  49.076  1.00  0.00    +0.054 A 
ATOM      5  N   UNL     1      22.028   2.799  50.188  1.00  0.00    -0.341 N 
ATOM      6  H   UNL     1      22.118   3.327  51.042  1.00  0.00    +0.168 HD
ENDROOT
BRANCH   1   7
ATOM      7  N   UNL     1      20.196   1.396  50.973  1.00  0.00    -0.297 N 
ATOM      8  C   UNL     1      18.984   0.647  50.627  1.00  0.00    +0.155 C 
BRANCH   7   9
ATOM      9  C   UNL     1      20.497   1.713  52.316  1.00  0.00    +0.259 C 
ATOM     10  O   UNL     1      20.177   2.732  52.925  1.00  0.00    -0.269 OA
BRANCH   9  11
ATOM     11  C   UNL     1      21.270   0.727  53.106  1.00  0.00    +0.040 A 
ATOM     12  C   UNL     1      23.382  -0.316  53.689  1.00  0.00    -0.050 A 
ATOM     13  C   UNL     1      22.695  -1.155  54.578  1.00  0.00    +0.003 A 
ATOM     14  C   UNL     1      22.660   0.633  52.955  1.00  0.00    +0.017 A 
ATOM     15  C   UNL     1      21.306  -1.076  54.708  1.00  0.00    +0.001 A 
ATOM     16  C   UNL     1      20.589  -0.140  53.964  1.00  0.00    +0.014 A 
ATOM     17  C   UNL     1      24.873  -0.402  53.562  1.00  0.00    +0.044 C 
ENDBRANCH   9  11
ENDBRANCH   7   9
ENDBRANCH   1   7
BRANCH   4  18
ATOM     18  C   UNL     1      23.879   4.006  49.035  1.00  0.00    +0.079 A 
ATOM     19  C   UNL     1      25.182   3.632  49.398  1.00  0.00    +0.063 A 
ATOM     20  C   UNL     1      23.682   5.334  48.625  1.00  0.00    +0.278 A 
ATOM     21  C   UNL     1      26.227   4.554  49.344  1.00  0.00    +0.116 A 
ATOM     22  C   UNL     1      24.732   6.263  48.564  1.00  0.00    +0.090 A 
ATOM     23  C   UNL     1      26.017   5.865  48.928  1.00  0.00    +0.053 A 
BRANCH  20  24
ATOM     24  N   UNL     1      22.359   5.812  48.289  1.00  0.00    +0.063 N 
ATOM     25  O   UNL     1      22.150   6.091  47.101  1.00  0.00    -0.258 OA
ATOM     26  O   UNL     1      21.562   5.966  49.225  1.00  0.00    -0.258 OA
ENDBRANCH  20  24
BRANCH  21  27
ATOM     27  O   UNL     1      27.467   4.119  49.712  1.00  0.00    -0.508 OA
ATOM     28  H   UNL     1      28.128   4.481  49.098  1.00  0.00    +0.293 HD
ENDBRANCH  21  27
ENDBRANCH   4  18
TORSDOF 6
ENDMDL
MODEL 7
REMARK VINA RESULT:    -7.725      3.449      5.042
REMARK INTER + INTRA:         -11.213
REMARK INTER:                 -10.495
REMARK INTRA:                  -0.717
REMARK UNBOUND:                -1.003
REMARK SMILES Cc1cccc(C(=O)N(C)c2ccc(-c3cc(O)ccc3[N+](=O)[O-])[nH]2)c1
REMARK SMILES IDX 11 1 12 2 13 3 14 4 25 5 9 7 10 8 7 9 8 10 6 11 2 12 3 13
REMARK SMILES IDX 26 14 4 15 5 16 1 17 15 18 16 19 21 20 17 21 20 22 19 23
REMARK SMILES IDX 22 24 23 25 24 26 18 27
REMARK H PARENT 25 6 18 28
ROOT
ATOM      1  C   UNL     1      24.247   3.400  51.457  1.00  0.00    +0.113 A 
ATOM      2  C   UNL     1      25.325   2.545  51.595  1.00  0.00    +0.047 A 
ATOM      3  C   UNL     1      24.896   1.389  52.294  1.00  0.00    +0.031 A 
ATOM      4  C   UNL     1      23.553   1.537  52.569  1.00  0.00    +0.054 A 
ATOM      5  N   UNL     1      23.182   2.760  52.054  1.00  0.00    -0.341 N 
ATOM      6  H   UNL     1      22.247   3.133  52.118  1.00  0.00    +0.168 HD
ENDROOT
BRANCH   1   7
ATOM      7  N   UNL     1      24.111   4.662  50.847  1.00  0.00    -0.297 N 
ATOM      8  C   UNL     1      23.785   5.850  51.643  1.00  0.00    +0.155 C 
BRANCH   7   9
ATOM      9  C   UNL     1      24.326   4.756  49.454  1.00  0.00    +0.259 C 
ATOM     10  O   UNL     1      23.549   4.424  48.562  1.00  0.00    -0.269 OA
BRANCH   9  11
ATOM     11  C   UNL     1      25.614   5.322  48.987  1.00  0.00    +0.040 A 
ATOM     12  C   UNL     1      26.886   7.144  48.014  1.00  0.00    -0.050 A 
ATOM     13  C   UNL     1      28.037   6.348  48.086  1.00  0.00    +0.003 A 
ATOM     14  C   UNL     1      25.670   6.624  48.474  1.00  0.00    +0.017 A 
ATOM     15  C   UNL     1      27.973   5.040  48.574  1.00  0.00    +0.001 A 
ATOM     16  C   UNL     1      26.758   4.520  49.017  1.00  0.00    +0.014 A 
ATOM     17  C   UNL     1      26.965   8.550  47.497  1.00  0.00    +0.044 C 
ENDBRANCH   9  11
ENDBRANCH   7   9
ENDBRANCH   1   7
BRANCH   4  18
ATOM     18  C   UNL     1      22.612   0.648  53.250  1.00  0.00    +0.079 A 
ATOM     19  C   UNL     1      23.112  -0.357  54.092  1.00  0.00    +0.063 A 
ATOM     20  C   UNL     1      21.218   0.755  53.134  1.00  0.00    +0.278 A 
ATOM     21  C   UNL     1      22.245  -1.204  54.780  1.00  0.00    +0.116 A 
ATOM     22  C   UNL     1      20.340  -0.092  53.829  1.00  0.00    +0.090 A 
ATOM     23  C   UNL     1      20.864  -1.081  54.660  1.00  0.00    +0.053 A 
BRANCH  20  24
ATOM     24  N   UNL     1      20.625   1.728  52.242  1.00  0.00    +0.063 N 
ATOM     25  O   UNL     1      20.195   2.769  52.757  1.00  0.00    -0.258 OA
ATOM     26  O   UNL     1      20.535   1.415  51.047  1.00  0.00    -0.258 OA
ENDBRANCH  20  24
BRANCH  21  27
ATOM     27  O   UNL     1      22.803  -2.158  55.580  1.00  0.00    -0.508 OA
ATOM     28  H   UNL     1      22.236  -2.295  56.358  1.00  0.00    +0.293 HD
ENDBRANCH  21  27
ENDBRANCH   4  18
TORSDOF 6
ENDMDL
MODEL 8
REMARK VINA RESULT:    -7.720      3.248      6.895
REMARK INTER + INTRA:         -11.206
REMARK INTER:                 -10.075
REMARK INTRA:                  -1.131
REMARK UNBOUND:                -1.003
REMARK SMILES Cc1cccc(C(=O)N(C)c2ccc(-c3cc(O)ccc3[N+](=O)[O-])[nH]2)c1
REMARK SMILES IDX 11 1 12 2 13 3 14 4 25 5 9 7 10 8 7 9 8 10 6 11 2 12 3 13
REMARK SMILES IDX 26 14 4 15 5 16 1 17 15 18 16 19 21 20 17 21 20 22 19 23
REMARK SMILES IDX 22 24 23 25 24 26 18 27
REMARK H PARENT 25 6 18 28
ROOT
ATOM      1  C   UNL     1      23.416   2.103  50.794  1.00  0.00    +0.113 A 
ATOM      2  C   UNL     1      22.741   2.111  49.588  1.00  0.00    +0.047 A 
ATOM      3  C   UNL     1      21.506   1.437  49.758  1.00  0.00    +0.031 A 
ATOM      4  C   UNL     1      21.426   1.032  51.074  1.00  0.00    +0.054 A 
ATOM      5  N   UNL     1      22.592   1.444  51.681  1.00  0.00    -0.341 N 
ATOM      6  H   UNL     1      22.808   1.275  52.652  1.00  0.00    +0.168 HD
ENDROOT
BRANCH   1   7
ATOM      7  N   UNL     1      24.663   2.630  51.185  1.00  0.00    -0.297 N 
ATOM      8  C   UNL     1      25.486   3.392  50.240  1.00  0.00    +0.155 C 
BRANCH   7   9
ATOM      9  C   UNL     1      25.084   2.429  52.519  1.00  0.00    +0.259 C 
ATOM     10  O   UNL     1      24.617   2.953  53.528  1.00  0.00    -0.269 OA
BRANCH   9  11
ATOM     11  C   UNL     1      26.198   1.483  52.760  1.00  0.00    +0.040 A 
ATOM     12  C   UNL     1      27.089  -0.774  52.739  1.00  0.00    -0.050 A 
ATOM     13  C   UNL     1      28.295  -0.278  53.251  1.00  0.00    +0.003 A 
ATOM     14  C   UNL     1      26.038   0.118  52.488  1.00  0.00    +0.017 A 
ATOM     15  C   UNL     1      28.442   1.080  53.545  1.00  0.00    +0.001 A 
ATOM     16  C   UNL     1      27.389   1.963  53.309  1.00  0.00    +0.014 A 
ATOM     17  C   UNL     1      26.941  -2.232  52.418  1.00  0.00    +0.044 C 
ENDBRANCH   9  11
ENDBRANCH   7   9
ENDBRANCH   1   7
BRANCH   4  18
ATOM     18  C   UNL     1      20.374   0.314  51.792  1.00  0.00    +0.079 A 
ATOM     19  C   UNL     1      19.058   0.369  51.305  1.00  0.00    +0.063 A 
ATOM     20  C   UNL     1      20.602  -0.460  52.940  1.00  0.00    +0.278 A 
ATOM     21  C   UNL     1      18.033  -0.326  51.947  1.00  0.00    +0.116 A 
ATOM     22  C   UNL     1      19.575  -1.166  53.586  1.00  0.00    +0.090 A 
ATOM     23  C   UNL     1      18.278  -1.095  53.081  1.00  0.00    +0.053 A 
BRANCH  20  24
ATOM     24  N   UNL     1      21.919  -0.522  53.536  1.00  0.00    +0.063 N 
ATOM     25  O   UNL     1      22.178   0.320  54.407  1.00  0.00    -0.258 OA
ATOM     26  O   UNL     1      22.703  -1.366  53.082  1.00  0.00    -0.258 OA
ENDBRANCH  20  24
BRANCH  21  27
ATOM     27  O   UNL     1      16.780  -0.225  51.418  1.00  0.00    -0.508 OA
ATOM     28  H   UNL     1      16.737  -0.743  50.596  1.00  0.00    +0.293 HD
ENDBRANCH  21  27
ENDBRANCH   4  18
TORSDOF 6
ENDMDL
MODEL 9
REMARK VINA RESULT:    -7.637      2.969      4.550
REMARK INTER + INTRA:         -11.096
REMARK INTER:                 -10.251
REMARK INTRA:                  -0.844
REMARK UNBOUND:                -1.003
REMARK SMILES Cc1cccc(C(=O)N(C)c2ccc(-c3cc(O)ccc3[N+](=O)[O-])[nH]2)c1
REMARK SMILES IDX 11 1 12 2 13 3 14 4 25 5 9 7 10 8 7 9 8 10 6 11 2 12 3 13
REMARK SMILES IDX 26 14 4 15 5 16 1 17 15 18 16 19 21 20 17 21 20 22 19 23
REMARK SMILES IDX 22 24 23 25 24 26 18 27
REMARK H PARENT 25 6 18 28
ROOT
ATOM      1  C   UNL     1      22.467   3.180  50.599  1.00  0.00    +0.113 A 
ATOM      2  C   UNL     1      22.003   2.148  49.805  1.00  0.00    +0.047 A 
ATOM      3  C   UNL     1      22.058   0.945  50.553  1.00  0.00    +0.031 A 
ATOM      4  C   UNL     1      22.543   1.251  51.808  1.00  0.00    +0.054 A 
ATOM      5  N   UNL     1      22.784   2.608  51.812  1.00  0.00    -0.341 N 
ATOM      6  H   UNL     1      23.152   3.108  52.607  1.00  0.00    +0.168 HD
ENDROOT
BRANCH   1   7
ATOM      7  N   UNL     1      22.616   4.561  50.364  1.00  0.00    -0.297 N 
ATOM      8  C   UNL     1      21.601   5.310  49.616  1.00  0.00    +0.155 C 
BRANCH   7   9
ATOM      9  C   UNL     1      23.755   5.209  50.893  1.00  0.00    +0.259 C 
ATOM     10  O   UNL     1      23.830   5.823  51.955  1.00  0.00    -0.269 OA
BRANCH   9  11
ATOM     11  C   UNL     1      25.013   5.149  50.111  1.00  0.00    +0.040 A 
ATOM     12  C   UNL     1      26.599   6.177  48.591  1.00  0.00    -0.050 A 
ATOM     13  C   UNL     1      27.362   5.001  48.628  1.00  0.00    +0.003 A 
ATOM     14  C   UNL     1      25.421   6.248  49.344  1.00  0.00    +0.017 A 
ATOM     15  C   UNL     1      26.939   3.898  49.375  1.00  0.00    +0.001 A 
ATOM     16  C   UNL     1      25.757   3.967  50.112  1.00  0.00    +0.014 A 
ATOM     17  C   UNL     1      27.064   7.359  47.793  1.00  0.00    +0.044 C 
ENDBRANCH   9  11
ENDBRANCH   7   9
ENDBRANCH   1   7
BRANCH   4  18
ATOM     18  C   UNL     1      22.787   0.402  52.973  1.00  0.00    +0.079 A 
ATOM     19  C   UNL     1      24.103   0.011  53.266  1.00  0.00    +0.063 A 
ATOM     20  C   UNL     1      21.778  -0.032  53.846  1.00  0.00    +0.278 A 
ATOM     21  C   UNL     1      24.378  -0.774  54.385  1.00  0.00    +0.116 A 
ATOM     22  C   UNL     1      22.050  -0.818  54.976  1.00  0.00    +0.090 A 
ATOM     23  C   UNL     1      23.365  -1.191  55.245  1.00  0.00    +0.053 A 
BRANCH  20  24
ATOM     24  N   UNL     1      20.390   0.282  53.580  1.00  0.00    +0.063 N 
ATOM     25  O   UNL     1      19.618  -0.676  53.439  1.00  0.00    -0.258 OA
ATOM     26  O   UNL     1      20.099   1.478  53.450  1.00  0.00    -0.258 OA
ENDBRANCH  20  24
BRANCH  21  27
ATOM     27  O   UNL     1      25.680  -1.116  54.607  1.00  0.00    -0.508 OA
ATOM     28  H   UNL     1      25.731  -1.687  55.393  1.00  0.00    +0.293 HD
ENDBRANCH  21  27
ENDBRANCH   4  18
TORSDOF 6
ENDMDL
