REMARK SMILES Nc1ccc2ncnc(-c3ccc(O)c([N+](=O)[O-])c3)c2c1
REMARK SMILES IDX 2 1 3 2 4 3 5 4 6 5 7 6 8 7 9 8 20 9 21 10 1 11 10 14 11 15
REMARK SMILES IDX 19 16 12 17 15 18 13 19 16 20 17 21 18 22 14 23
REMARK H PARENT 1 12 1 13 14 24
ROOT
ATOM      1  C   UNL     1       2.770  -0.166   1.484  1.00  0.00    +0.032 A 
ATOM      2  C   UNL     1       3.929  -0.098   0.721  1.00  0.00    +0.028 A 
ATOM      3  C   UNL     1       3.857   0.006  -0.672  1.00  0.00    +0.031 A 
ATOM      4  C   UNL     1       2.645   0.006  -1.346  1.00  0.00    +0.074 A 
ATOM      5  N   UNL     1       2.654   0.100  -2.680  1.00  0.00    -0.236 NA
ATOM      6  C   UNL     1       1.469   0.068  -3.300  1.00  0.00    +0.223 A 
ATOM      7  N   UNL     1       0.276  -0.043  -2.710  1.00  0.00    -0.236 NA
ATOM      8  C   UNL     1       0.286  -0.124  -1.361  1.00  0.00    +0.082 A 
ATOM      9  C   UNL     1       1.467  -0.112  -0.599  1.00  0.00    +0.029 A 
ATOM     10  C   UNL     1       1.547  -0.227   0.816  1.00  0.00    +0.038 A 
ENDROOT
BRANCH   1  11
ATOM     11  N   UNL     1       2.839  -0.398   2.859  1.00  0.00    -0.399 N 
ATOM     12  H   UNL     1       2.007  -0.129   3.376  1.00  0.00    +0.156 HD
ATOM     13  H   UNL     1       3.688  -0.055   3.299  1.00  0.00    +0.156 HD
ENDBRANCH   1  11
BRANCH   8  14
ATOM     14  C   UNL     1      -1.062  -0.213  -0.776  1.00  0.00    +0.008 A 
ATOM     15  C   UNL     1      -1.864  -1.343  -1.005  1.00  0.00    +0.015 A 
ATOM     16  C   UNL     1      -1.593   0.836  -0.006  1.00  0.00    +0.100 A 
ATOM     17  C   UNL     1      -3.152  -1.437  -0.469  1.00  0.00    +0.054 A 
ATOM     18  C   UNL     1      -2.889   0.742   0.532  1.00  0.00    +0.311 A 
ATOM     19  C   UNL     1      -3.670  -0.397   0.300  1.00  0.00    +0.194 A 
BRANCH  18  20
ATOM     20  N   UNL     1      -3.396   1.850   1.342  1.00  0.00    +0.066 N 
ATOM     21  O   UNL     1      -2.612   2.763   1.637  1.00  0.00    -0.258 OA
ATOM     22  O   UNL     1      -4.585   1.803   1.696  1.00  0.00    -0.258 OA
ENDBRANCH  18  20
BRANCH  19  23
ATOM     23  O   UNL     1      -4.938  -0.598   0.772  1.00  0.00    -0.502 OA
ATOM     24  H   UNL     1      -5.253   0.204   1.240  1.00  0.00    +0.293 HD
ENDBRANCH  19  23
ENDBRANCH   8  14
TORSDOF 4
