MODEL 1
REMARK VINA RESULT:    -8.689      0.000      0.000
REMARK INTER + INTRA:         -11.319
REMARK INTER:                 -10.467
REMARK INTRA:                  -0.853
REMARK UNBOUND:                -0.853
REMARK SMILES Cc1cc(-c2ccc(O)c([N+](=O)[O-])c2)[nH]c1-c1cccc(Cl)c1
REMARK SMILES IDX 5 1 6 2 7 3 8 4 10 5 14 6 4 7 2 8 3 9 16 10 15 11 1 12 17 14
REMARK SMILES IDX 18 15 23 16 19 17 21 18 20 19 22 20 11 21 12 22 13 23 9 24
REMARK H PARENT 15 13 9 25
ROOT
ATOM      1  C   UNL     1      24.380   0.816  52.699  1.00  0.00    +0.005 A 
ATOM      2  C   UNL     1      23.338   0.006  53.183  1.00  0.00    +0.014 A 
ATOM      3  C   UNL     1      23.517  -0.811  54.307  1.00  0.00    +0.054 A 
ATOM      4  C   UNL     1      24.746  -0.831  54.962  1.00  0.00    +0.194 A 
ATOM      5  C   UNL     1      25.781  -0.033  54.477  1.00  0.00    +0.311 A 
ATOM      6  C   UNL     1      25.611   0.795  53.361  1.00  0.00    +0.100 A 
ENDROOT
BRANCH   1   7
ATOM      7  C   UNL     1      24.188   1.674  51.530  1.00  0.00    +0.046 A 
ATOM      8  C   UNL     1      23.433   2.756  49.667  1.00  0.00    -0.025 A 
ATOM      9  C   UNL     1      23.149   1.734  50.619  1.00  0.00    +0.032 A 
ATOM     10  C   UNL     1      24.650   3.316  50.027  1.00  0.00    +0.049 A 
ATOM     11  N   UNL     1      25.084   2.648  51.151  1.00  0.00    -0.354 N 
ATOM     12  C   UNL     1      22.573   3.123  48.510  1.00  0.00    +0.047 C 
ATOM     13  H   UNL     1      25.929   2.878  51.654  1.00  0.00    +0.167 HD
BRANCH  10  14
ATOM     14  C   UNL     1      25.421   4.408  49.437  1.00  0.00    -0.000 A 
ATOM     15  C   UNL     1      24.817   5.647  49.185  1.00  0.00    +0.010 A 
ATOM     16  C   UNL     1      26.774   4.232  49.119  1.00  0.00    +0.030 A 
ATOM     17  C   UNL     1      25.551   6.696  48.627  1.00  0.00    +0.002 A 
ATOM     18  C   UNL     1      27.502   5.283  48.562  1.00  0.00    +0.041 A 
ATOM     19  C   UNL     1      26.897   6.514  48.315  1.00  0.00    +0.020 A 
ATOM     20 Cl   UNL     1      29.164   5.057  48.177  1.00  0.00    -0.084 Cl
ENDBRANCH  10  14
ENDBRANCH   1   7
BRANCH   5  21
ATOM     21  N   UNL     1      27.075  -0.044  55.124  1.00  0.00    +0.066 N 
ATOM     22  O   UNL     1      28.029  -0.477  54.459  1.00  0.00    -0.258 OA
ATOM     23  O   UNL     1      27.127   0.321  56.306  1.00  0.00    -0.258 OA
ENDBRANCH   5  21
BRANCH   4  24
ATOM     24  O   UNL     1      24.915  -1.602  56.072  1.00  0.00    -0.502 OA
ATOM     25  H   UNL     1      25.861  -1.767  56.224  1.00  0.00    +0.293 HD
ENDBRANCH   4  24
TORSDOF 4
ENDMDL
MODEL 2
REMARK VINA RESULT:    -8.669      1.122      1.620
REMARK INTER + INTRA:         -11.295
REMARK INTER:                 -10.374
REMARK INTRA:                  -0.921
REMARK UNBOUND:                -0.853
REMARK SMILES Cc1cc(-c2ccc(O)c([N+](=O)[O-])c2)[nH]c1-c1cccc(Cl)c1
REMARK SMILES IDX 5 1 6 2 7 3 8 4 10 5 14 6 4 7 2 8 3 9 16 10 15 11 1 12 17 14
REMARK SMILES IDX 18 15 23 16 19 17 21 18 20 19 22 20 11 21 12 22 13 23 9 24
REMARK H PARENT 15 13 9 25
ROOT
ATOM      1  C   UNL     1      24.511   0.846  52.772  1.00  0.00    +0.005 A 
ATOM      2  C   UNL     1      23.432   0.038  53.170  1.00  0.00    +0.014 A 
ATOM      3  C   UNL     1      23.541  -0.833  54.263  1.00  0.00    +0.054 A 
ATOM      4  C   UNL     1      24.737  -0.909  54.971  1.00  0.00    +0.194 A 
ATOM      5  C   UNL     1      25.809  -0.114  54.572  1.00  0.00    +0.311 A 
ATOM      6  C   UNL     1      25.709   0.767  53.488  1.00  0.00    +0.100 A 
ENDROOT
BRANCH   1   7
ATOM      7  C   UNL     1      24.392   1.759  51.636  1.00  0.00    +0.046 A 
ATOM      8  C   UNL     1      23.738   2.955  49.804  1.00  0.00    -0.025 A 
ATOM      9  C   UNL     1      23.380   1.911  50.706  1.00  0.00    +0.032 A 
ATOM     10  C   UNL     1      24.974   3.435  50.214  1.00  0.00    +0.049 A 
ATOM     11  N   UNL     1      25.345   2.699  51.318  1.00  0.00    -0.354 N 
ATOM     12  C   UNL     1      22.926   3.413  48.645  1.00  0.00    +0.047 C 
ATOM     13  H   UNL     1      26.189   2.865  51.849  1.00  0.00    +0.167 HD
BRANCH  10  14
ATOM     14  C   UNL     1      25.813   4.508  49.687  1.00  0.00    -0.000 A 
ATOM     15  C   UNL     1      27.008   4.211  49.020  1.00  0.00    +0.010 A 
ATOM     16  C   UNL     1      25.431   5.847  49.837  1.00  0.00    +0.030 A 
ATOM     17  C   UNL     1      27.811   5.233  48.508  1.00  0.00    +0.002 A 
ATOM     18  C   UNL     1      26.237   6.864  49.324  1.00  0.00    +0.041 A 
ATOM     19  C   UNL     1      27.424   6.563  48.660  1.00  0.00    +0.020 A 
ATOM     20 Cl   UNL     1      25.758   8.506  49.513  1.00  0.00    -0.084 Cl
ENDBRANCH  10  14
ENDBRANCH   1   7
BRANCH   5  21
ATOM     21  N   UNL     1      27.071  -0.182  55.277  1.00  0.00    +0.066 N 
ATOM     22  O   UNL     1      27.057   0.116  56.480  1.00  0.00    -0.258 OA
ATOM     23  O   UNL     1      28.079  -0.475  54.618  1.00  0.00    -0.258 OA
ENDBRANCH   5  21
BRANCH   4  24
ATOM     24  O   UNL     1      24.838  -1.733  56.052  1.00  0.00    -0.502 OA
ATOM     25  H   UNL     1      24.047  -1.648  56.612  1.00  0.00    +0.293 HD
ENDBRANCH   4  24
TORSDOF 4
ENDMDL
MODEL 3
REMARK VINA RESULT:    -8.474      1.504      2.312
REMARK INTER + INTRA:         -11.061
REMARK INTER:                 -10.287
REMARK INTRA:                  -0.775
REMARK UNBOUND:                -0.853
REMARK SMILES Cc1cc(-c2ccc(O)c([N+](=O)[O-])c2)[nH]c1-c1cccc(Cl)c1
REMARK SMILES IDX 5 1 6 2 7 3 8 4 10 5 14 6 4 7 2 8 3 9 16 10 15 11 1 12 17 14
REMARK SMILES IDX 18 15 23 16 19 17 21 18 20 19 22 20 11 21 12 22 13 23 9 24
REMARK H PARENT 15 13 9 25
ROOT
ATOM      1  C   UNL     1      24.316   0.889  52.481  1.00  0.00    +0.005 A 
ATOM      2  C   UNL     1      25.590   0.526  52.950  1.00  0.00    +0.014 A 
ATOM      3  C   UNL     1      25.742  -0.325  54.053  1.00  0.00    +0.054 A 
ATOM      4  C   UNL     1      24.616  -0.823  54.704  1.00  0.00    +0.194 A 
ATOM      5  C   UNL     1      23.354  -0.458  54.243  1.00  0.00    +0.311 A 
ATOM      6  C   UNL     1      23.189   0.384  53.136  1.00  0.00    +0.100 A 
ENDROOT
BRANCH   1   7
ATOM      7  C   UNL     1      24.161   1.771  51.324  1.00  0.00    +0.046 A 
ATOM      8  C   UNL     1      23.458   2.898  49.467  1.00  0.00    -0.025 A 
ATOM      9  C   UNL     1      23.142   1.862  50.393  1.00  0.00    +0.032 A 
ATOM     10  C   UNL     1      24.675   3.434  49.864  1.00  0.00    +0.049 A 
ATOM     11  N   UNL     1      25.077   2.740  50.983  1.00  0.00    -0.354 N 
ATOM     12  C   UNL     1      22.628   3.298  48.300  1.00  0.00    +0.047 C 
ATOM     13  H   UNL     1      25.914   2.950  51.508  1.00  0.00    +0.167 HD
BRANCH  10  14
ATOM     14  C   UNL     1      25.472   4.527  49.310  1.00  0.00    -0.000 A 
ATOM     15  C   UNL     1      24.885   5.773  49.053  1.00  0.00    +0.010 A 
ATOM     16  C   UNL     1      26.833   4.345  49.035  1.00  0.00    +0.030 A 
ATOM     17  C   UNL     1      25.644   6.823  48.530  1.00  0.00    +0.002 A 
ATOM     18  C   UNL     1      27.587   5.397  48.513  1.00  0.00    +0.041 A 
ATOM     19  C   UNL     1      26.999   6.634  48.260  1.00  0.00    +0.020 A 
ATOM     20 Cl   UNL     1      29.258   5.162  48.179  1.00  0.00    -0.084 Cl
ENDBRANCH  10  14
ENDBRANCH   1   7
BRANCH   5  21
ATOM     21  N   UNL     1      22.164  -0.944  54.909  1.00  0.00    +0.066 N 
ATOM     22  O   UNL     1      22.125  -2.156  55.169  1.00  0.00    -0.258 OA
ATOM     23  O   UNL     1      21.252  -0.132  55.116  1.00  0.00    -0.258 OA
ENDBRANCH   5  21
BRANCH   4  24
ATOM     24  O   UNL     1      24.760  -1.674  55.759  1.00  0.00    -0.502 OA
ATOM     25  H   UNL     1      25.114  -1.196  56.529  1.00  0.00    +0.293 HD
ENDBRANCH   4  24
TORSDOF 4
ENDMDL
MODEL 4
REMARK VINA RESULT:    -8.230      3.753      6.005
REMARK INTER + INTRA:         -10.767
REMARK INTER:                 -10.270
REMARK INTRA:                  -0.496
REMARK UNBOUND:                -0.853
REMARK SMILES Cc1cc(-c2ccc(O)c([N+](=O)[O-])c2)[nH]c1-c1cccc(Cl)c1
REMARK SMILES IDX 5 1 6 2 7 3 8 4 10 5 14 6 4 7 2 8 3 9 16 10 15 11 1 12 17 14
REMARK SMILES IDX 18 15 23 16 19 17 21 18 20 19 22 20 11 21 12 22 13 23 9 24
REMARK H PARENT 15 13 9 25
ROOT
ATOM      1  C   UNL     1      25.182   0.711  53.145  1.00  0.00    +0.005 A 
ATOM      2  C   UNL     1      25.590   1.676  52.209  1.00  0.00    +0.014 A 
ATOM      3  C   UNL     1      26.913   2.138  52.172  1.00  0.00    +0.054 A 
ATOM      4  C   UNL     1      27.847   1.638  53.076  1.00  0.00    +0.194 A 
ATOM      5  C   UNL     1      27.440   0.686  54.008  1.00  0.00    +0.311 A 
ATOM      6  C   UNL     1      26.124   0.210  54.049  1.00  0.00    +0.100 A 
ENDROOT
BRANCH   1   7
ATOM      7  C   UNL     1      23.803   0.225  53.176  1.00  0.00    +0.046 A 
ATOM      8  C   UNL     1      21.815  -0.794  53.650  1.00  0.00    -0.025 A 
ATOM      9  C   UNL     1      23.182  -0.664  54.035  1.00  0.00    +0.032 A 
ATOM     10  C   UNL     1      21.623   0.039  52.557  1.00  0.00    +0.049 A 
ATOM     11  N   UNL     1      22.833   0.641  52.292  1.00  0.00    -0.354 N 
ATOM     12  C   UNL     1      20.811  -1.673  54.308  1.00  0.00    +0.047 C 
ATOM     13  H   UNL     1      22.974   1.332  51.569  1.00  0.00    +0.167 HD
BRANCH  10  14
ATOM     14  C   UNL     1      20.430   0.329  51.765  1.00  0.00    -0.000 A 
ATOM     15  C   UNL     1      19.184  -0.187  52.145  1.00  0.00    +0.010 A 
ATOM     16  C   UNL     1      20.516   1.130  50.620  1.00  0.00    +0.030 A 
ATOM     17  C   UNL     1      18.040   0.093  51.394  1.00  0.00    +0.002 A 
ATOM     18  C   UNL     1      19.370   1.407  49.874  1.00  0.00    +0.041 A 
ATOM     19  C   UNL     1      18.133   0.893  50.256  1.00  0.00    +0.020 A 
ATOM     20 Cl   UNL     1      19.486   2.393  48.469  1.00  0.00    -0.084 Cl
ENDBRANCH  10  14
ENDBRANCH   1   7
BRANCH   5  21
ATOM     21  N   UNL     1      28.382   0.161  54.973  1.00  0.00    +0.066 N 
ATOM     22  O   UNL     1      29.390  -0.404  54.521  1.00  0.00    -0.258 OA
ATOM     23  O   UNL     1      28.087   0.259  56.172  1.00  0.00    -0.258 OA
ENDBRANCH   5  21
BRANCH   4  24
ATOM     24  O   UNL     1      29.140   2.064  53.024  1.00  0.00    -0.502 OA
ATOM     25  H   UNL     1      29.297   2.742  53.704  1.00  0.00    +0.293 HD
ENDBRANCH   4  24
TORSDOF 4
ENDMDL
MODEL 5
REMARK VINA RESULT:    -8.224      1.592      2.103
REMARK INTER + INTRA:         -10.760
REMARK INTER:                 -10.065
REMARK INTRA:                  -0.694
REMARK UNBOUND:                -0.853
REMARK SMILES Cc1cc(-c2ccc(O)c([N+](=O)[O-])c2)[nH]c1-c1cccc(Cl)c1
REMARK SMILES IDX 5 1 6 2 7 3 8 4 10 5 14 6 4 7 2 8 3 9 16 10 15 11 1 12 17 14
REMARK SMILES IDX 18 15 23 16 19 17 21 18 20 19 22 20 11 21 12 22 13 23 9 24
REMARK H PARENT 15 13 9 25
ROOT
ATOM      1  C   UNL     1      25.996   2.068  52.191  1.00  0.00    +0.005 A 
ATOM      2  C   UNL     1      25.044   1.191  52.736  1.00  0.00    +0.014 A 
ATOM      3  C   UNL     1      25.368   0.335  53.797  1.00  0.00    +0.054 A 
ATOM      4  C   UNL     1      26.656   0.344  54.327  1.00  0.00    +0.194 A 
ATOM      5  C   UNL     1      27.603   1.209  53.782  1.00  0.00    +0.311 A 
ATOM      6  C   UNL     1      27.288   2.076  52.728  1.00  0.00    +0.100 A 
ENDROOT
BRANCH   1   7
ATOM      7  C   UNL     1      25.653   2.966  51.089  1.00  0.00    +0.046 A 
ATOM      8  C   UNL     1      24.637   4.163  49.431  1.00  0.00    -0.025 A 
ATOM      9  C   UNL     1      24.455   3.158  50.426  1.00  0.00    +0.032 A 
ATOM     10  C   UNL     1      25.959   4.579  49.516  1.00  0.00    +0.049 A 
ATOM     11  N   UNL     1      26.548   3.844  50.521  1.00  0.00    -0.354 N 
ATOM     12  C   UNL     1      23.594   4.646  48.488  1.00  0.00    +0.047 C 
ATOM     13  H   UNL     1      27.503   3.970  50.828  1.00  0.00    +0.167 HD
BRANCH  10  14
ATOM     14  C   UNL     1      26.699   5.592  48.769  1.00  0.00    -0.000 A 
ATOM     15  C   UNL     1      26.053   6.745  48.304  1.00  0.00    +0.010 A 
ATOM     16  C   UNL     1      28.066   5.427  48.512  1.00  0.00    +0.030 A 
ATOM     17  C   UNL     1      26.758   7.720  47.595  1.00  0.00    +0.002 A 
ATOM     18  C   UNL     1      28.766   6.404  47.803  1.00  0.00    +0.041 A 
ATOM     19  C   UNL     1      28.119   7.549  47.344  1.00  0.00    +0.020 A 
ATOM     20 Cl   UNL     1      30.445   6.191  47.493  1.00  0.00    -0.084 Cl
ENDBRANCH  10  14
ENDBRANCH   1   7
BRANCH   5  21
ATOM     21  N   UNL     1      28.954   1.231  54.297  1.00  0.00    +0.066 N 
ATOM     22  O   UNL     1      29.606   0.180  54.201  1.00  0.00    -0.258 OA
ATOM     23  O   UNL     1      29.340   2.271  54.847  1.00  0.00    -0.258 OA
ENDBRANCH   5  21
BRANCH   4  24
ATOM     24  O   UNL     1      26.967  -0.466  55.377  1.00  0.00    -0.502 OA
ATOM     25  H   UNL     1      27.044  -1.388  55.077  1.00  0.00    +0.293 HD
ENDBRANCH   4  24
TORSDOF 4
ENDMDL
MODEL 6
REMARK VINA RESULT:    -8.164      1.893      3.006
REMARK INTER + INTRA:         -10.687
REMARK INTER:                  -9.910
REMARK INTRA:                  -0.777
REMARK UNBOUND:                -0.853
REMARK SMILES Cc1cc(-c2ccc(O)c([N+](=O)[O-])c2)[nH]c1-c1cccc(Cl)c1
REMARK SMILES IDX 5 1 6 2 7 3 8 4 10 5 14 6 4 7 2 8 3 9 16 10 15 11 1 12 17 14
REMARK SMILES IDX 18 15 23 16 19 17 21 18 20 19 22 20 11 21 12 22 13 23 9 24
REMARK H PARENT 15 13 9 25
ROOT
ATOM      1  C   UNL     1      25.289   1.093  52.720  1.00  0.00    +0.005 A 
ATOM      2  C   UNL     1      24.131   0.331  52.950  1.00  0.00    +0.014 A 
ATOM      3  C   UNL     1      24.045  -0.549  54.037  1.00  0.00    +0.054 A 
ATOM      4  C   UNL     1      25.123  -0.680  54.909  1.00  0.00    +0.194 A 
ATOM      5  C   UNL     1      26.273   0.070  54.677  1.00  0.00    +0.311 A 
ATOM      6  C   UNL     1      26.368   0.960  53.600  1.00  0.00    +0.100 A 
ENDROOT
BRANCH   1   7
ATOM      7  C   UNL     1      25.374   2.017  51.589  1.00  0.00    +0.046 A 
ATOM      8  C   UNL     1      26.019   3.453  49.936  1.00  0.00    -0.025 A 
ATOM      9  C   UNL     1      26.461   2.675  51.045  1.00  0.00    +0.032 A 
ATOM     10  C   UNL     1      24.652   3.242  49.815  1.00  0.00    +0.049 A 
ATOM     11  N   UNL     1      24.289   2.374  50.821  1.00  0.00    -0.354 N 
ATOM     12  C   UNL     1      26.879   4.326  49.092  1.00  0.00    +0.047 C 
ATOM     13  H   UNL     1      23.353   2.013  50.945  1.00  0.00    +0.167 HD
BRANCH  10  14
ATOM     14  C   UNL     1      23.679   3.755  48.854  1.00  0.00    -0.000 A 
ATOM     15  C   UNL     1      22.892   2.873  48.102  1.00  0.00    +0.010 A 
ATOM     16  C   UNL     1      23.518   5.135  48.674  1.00  0.00    +0.030 A 
ATOM     17  C   UNL     1      21.956   3.359  47.186  1.00  0.00    +0.002 A 
ATOM     18  C   UNL     1      22.581   5.615  47.759  1.00  0.00    +0.041 A 
ATOM     19  C   UNL     1      21.800   4.734  47.015  1.00  0.00    +0.020 A 
ATOM     20 Cl   UNL     1      22.391   7.312  47.547  1.00  0.00    -0.084 Cl
ENDBRANCH  10  14
ENDBRANCH   1   7
BRANCH   5  21
ATOM     21  N   UNL     1      27.417  -0.057  55.555  1.00  0.00    +0.066 N 
ATOM     22  O   UNL     1      28.513  -0.273  55.017  1.00  0.00    -0.258 OA
ATOM     23  O   UNL     1      27.210  -0.001  56.775  1.00  0.00    -0.258 OA
ENDBRANCH   5  21
BRANCH   4  24
ATOM     24  O   UNL     1      25.032  -1.514  55.984  1.00  0.00    -0.502 OA
ATOM     25  H   UNL     1      25.423  -1.091  56.768  1.00  0.00    +0.293 HD
ENDBRANCH   4  24
TORSDOF 4
ENDMDL
MODEL 7
REMARK VINA RESULT:    -8.085      4.523      6.402
REMARK INTER + INTRA:         -10.591
REMARK INTER:                  -9.845
REMARK INTRA:                  -0.746
REMARK UNBOUND:                -0.853
REMARK SMILES Cc1cc(-c2ccc(O)c([N+](=O)[O-])c2)[nH]c1-c1cccc(Cl)c1
REMARK SMILES IDX 5 1 6 2 7 3 8 4 10 5 14 6 4 7 2 8 3 9 16 10 15 11 1 12 17 14
REMARK SMILES IDX 18 15 23 16 19 17 21 18 20 19 22 20 11 21 12 22 13 23 9 24
REMARK H PARENT 15 13 9 25
ROOT
ATOM      1  C   UNL     1      21.815  -0.098  52.895  1.00  0.00    +0.005 A 
ATOM      2  C   UNL     1      21.713  -1.002  53.967  1.00  0.00    +0.014 A 
ATOM      3  C   UNL     1      20.484  -1.578  54.315  1.00  0.00    +0.054 A 
ATOM      4  C   UNL     1      19.337  -1.255  53.594  1.00  0.00    +0.194 A 
ATOM      5  C   UNL     1      19.437  -0.354  52.536  1.00  0.00    +0.311 A 
ATOM      6  C   UNL     1      20.661   0.221  52.172  1.00  0.00    +0.100 A 
ENDROOT
BRANCH   1   7
ATOM      7  C   UNL     1      23.100   0.496  52.528  1.00  0.00    +0.046 A 
ATOM      8  C   UNL     1      24.806   1.754  51.678  1.00  0.00    -0.025 A 
ATOM      9  C   UNL     1      23.394   1.554  51.688  1.00  0.00    +0.032 A 
ATOM     10  C   UNL     1      25.352   0.808  52.534  1.00  0.00    +0.049 A 
ATOM     11  N   UNL     1      24.305   0.064  53.033  1.00  0.00    -0.354 N 
ATOM     12  C   UNL     1      25.529   2.781  50.882  1.00  0.00    +0.047 C 
ATOM     13  H   UNL     1      24.411  -0.672  53.717  1.00  0.00    +0.167 HD
BRANCH  10  14
ATOM     14  C   UNL     1      26.734   0.553  52.932  1.00  0.00    -0.000 A 
ATOM     15  C   UNL     1      27.556   1.606  53.355  1.00  0.00    +0.010 A 
ATOM     16  C   UNL     1      27.255  -0.747  52.902  1.00  0.00    +0.030 A 
ATOM     17  C   UNL     1      28.877   1.367  53.742  1.00  0.00    +0.002 A 
ATOM     18  C   UNL     1      28.574  -0.980  53.290  1.00  0.00    +0.041 A 
ATOM     19  C   UNL     1      29.387   0.070  53.711  1.00  0.00    +0.020 A 
ATOM     20 Cl   UNL     1      29.202  -2.582  53.249  1.00  0.00    -0.084 Cl
ENDBRANCH  10  14
ENDBRANCH   1   7
BRANCH   5  21
ATOM     21  N   UNL     1      18.262   0.016  51.779  1.00  0.00    +0.066 N 
ATOM     22  O   UNL     1      17.221   0.218  52.423  1.00  0.00    -0.258 OA
ATOM     23  O   UNL     1      18.363   0.047  50.545  1.00  0.00    -0.258 OA
ENDBRANCH   5  21
BRANCH   4  24
ATOM     24  O   UNL     1      18.146  -1.836  53.912  1.00  0.00    -0.502 OA
ATOM     25  H   UNL     1      17.651  -1.268  54.527  1.00  0.00    +0.293 HD
ENDBRANCH   4  24
TORSDOF 4
ENDMDL
MODEL 8
REMARK VINA RESULT:    -7.967      4.437      6.196
REMARK INTER + INTRA:         -10.450
REMARK INTER:                  -9.675
REMARK INTRA:                  -0.774
REMARK UNBOUND:                -0.853
REMARK SMILES Cc1cc(-c2ccc(O)c([N+](=O)[O-])c2)[nH]c1-c1cccc(Cl)c1
REMARK SMILES IDX 5 1 6 2 7 3 8 4 10 5 14 6 4 7 2 8 3 9 16 10 15 11 1 12 17 14
REMARK SMILES IDX 18 15 23 16 19 17 21 18 20 19 22 20 11 21 12 22 13 23 9 24
REMARK H PARENT 15 13 9 25
ROOT
ATOM      1  C   UNL     1      24.972   0.791  53.037  1.00  0.00    +0.005 A 
ATOM      2  C   UNL     1      25.929   0.456  52.064  1.00  0.00    +0.014 A 
ATOM      3  C   UNL     1      27.173  -0.079  52.424  1.00  0.00    +0.054 A 
ATOM      4  C   UNL     1      27.477  -0.284  53.767  1.00  0.00    +0.194 A 
ATOM      5  C   UNL     1      26.531   0.054  54.732  1.00  0.00    +0.311 A 
ATOM      6  C   UNL     1      25.281   0.581  54.385  1.00  0.00    +0.100 A 
ENDROOT
BRANCH   1   7
ATOM      7  C   UNL     1      23.671   1.343  52.659  1.00  0.00    +0.046 A 
ATOM      8  C   UNL     1      21.903   2.659  52.065  1.00  0.00    -0.025 A 
ATOM      9  C   UNL     1      23.284   2.648  52.416  1.00  0.00    +0.032 A 
ATOM     10  C   UNL     1      21.471   1.341  52.088  1.00  0.00    +0.049 A 
ATOM     11  N   UNL     1      22.553   0.569  52.448  1.00  0.00    -0.354 N 
ATOM     12  C   UNL     1      21.100   3.871  51.748  1.00  0.00    +0.047 C 
ATOM     13  H   UNL     1      22.534  -0.440  52.504  1.00  0.00    +0.167 HD
BRANCH  10  14
ATOM     14  C   UNL     1      20.168   0.749  51.794  1.00  0.00    -0.000 A 
ATOM     15  C   UNL     1      19.491   1.076  50.612  1.00  0.00    +0.010 A 
ATOM     16  C   UNL     1      19.582  -0.158  52.686  1.00  0.00    +0.030 A 
ATOM     17  C   UNL     1      18.248   0.508  50.323  1.00  0.00    +0.002 A 
ATOM     18  C   UNL     1      18.340  -0.723  52.393  1.00  0.00    +0.041 A 
ATOM     19  C   UNL     1      17.672  -0.394  51.216  1.00  0.00    +0.020 A 
ATOM     20 Cl   UNL     1      17.630  -1.836  53.496  1.00  0.00    -0.084 Cl
ENDBRANCH  10  14
ENDBRANCH   1   7
BRANCH   5  21
ATOM     21  N   UNL     1      26.824  -0.130  56.137  1.00  0.00    +0.066 N 
ATOM     22  O   UNL     1      27.927   0.272  56.536  1.00  0.00    -0.258 OA
ATOM     23  O   UNL     1      25.982  -0.726  56.823  1.00  0.00    -0.258 OA
ENDBRANCH   5  21
BRANCH   4  24
ATOM     24  O   UNL     1      28.675  -0.832  54.118  1.00  0.00    -0.502 OA
ATOM     25  H   UNL     1      29.092  -0.301  54.819  1.00  0.00    +0.293 HD
ENDBRANCH   4  24
TORSDOF 4
ENDMDL
MODEL 9
REMARK VINA RESULT:    -7.850      5.221      6.871
REMARK INTER + INTRA:         -10.309
REMARK INTER:                  -9.499
REMARK INTRA:                  -0.810
REMARK UNBOUND:                -0.853
REMARK SMILES Cc1cc(-c2ccc(O)c([N+](=O)[O-])c2)[nH]c1-c1cccc(Cl)c1
REMARK SMILES IDX 5 1 6 2 7 3 8 4 10 5 14 6 4 7 2 8 3 9 16 10 15 11 1 12 17 14
REMARK SMILES IDX 18 15 23 16 19 17 21 18 20 19 22 20 11 21 12 22 13 23 9 24
REMARK H PARENT 15 13 9 25
ROOT
ATOM      1  C   UNL     1      21.428   0.432  51.903  1.00  0.00    +0.005 A 
ATOM      2  C   UNL     1      20.099   0.197  52.294  1.00  0.00    +0.014 A 
ATOM      3  C   UNL     1      19.029   0.468  51.430  1.00  0.00    +0.054 A 
ATOM      4  C   UNL     1      19.277   0.982  50.160  1.00  0.00    +0.194 A 
ATOM      5  C   UNL     1      20.595   1.222  49.775  1.00  0.00    +0.311 A 
ATOM      6  C   UNL     1      21.672   0.946  50.626  1.00  0.00    +0.100 A 
ENDROOT
BRANCH   1   7
ATOM      7  C   UNL     1      22.543   0.141  52.804  1.00  0.00    +0.046 A 
ATOM      8  C   UNL     1      23.921  -0.590  54.471  1.00  0.00    -0.025 A 
ATOM      9  C   UNL     1      22.585  -0.594  53.975  1.00  0.00    +0.032 A 
ATOM     10  C   UNL     1      24.681   0.149  53.575  1.00  0.00    +0.049 A 
ATOM     11  N   UNL     1      23.829   0.577  52.582  1.00  0.00    -0.354 N 
ATOM     12  C   UNL     1      24.382  -1.251  55.722  1.00  0.00    +0.047 C 
ATOM     13  H   UNL     1      24.125   1.104  51.772  1.00  0.00    +0.167 HD
BRANCH  10  14
ATOM     14  C   UNL     1      26.107   0.469  53.557  1.00  0.00    -0.000 A 
ATOM     15  C   UNL     1      26.533   1.804  53.555  1.00  0.00    +0.010 A 
ATOM     16  C   UNL     1      27.065  -0.552  53.547  1.00  0.00    +0.030 A 
ATOM     17  C   UNL     1      27.895   2.115  53.543  1.00  0.00    +0.002 A 
ATOM     18  C   UNL     1      28.423  -0.236  53.537  1.00  0.00    +0.041 A 
ATOM     19  C   UNL     1      28.842   1.092  53.536  1.00  0.00    +0.020 A 
ATOM     20 Cl   UNL     1      29.591  -1.499  53.525  1.00  0.00    -0.084 Cl
ENDBRANCH  10  14
ENDBRANCH   1   7
BRANCH   5  21
ATOM     21  N   UNL     1      20.885   1.772  48.469  1.00  0.00    +0.066 N 
ATOM     22  O   UNL     1      21.891   1.337  47.889  1.00  0.00    -0.258 OA
ATOM     23  O   UNL     1      20.147   2.675  48.052  1.00  0.00    -0.258 OA
ENDBRANCH   5  21
BRANCH   4  24
ATOM     24  O   UNL     1      18.242   1.219  49.307  1.00  0.00    -0.502 OA
ATOM     25  H   UNL     1      18.238   0.558  48.594  1.00  0.00    +0.293 HD
ENDBRANCH   4  24
TORSDOF 4
ENDMDL
