REMARK SMILES CN(C)/N=N/c1ccc2ncnc(-c3ccccc3)c2c1
REMARK SMILES IDX 4 1 5 2 2 3 1 4 3 5 6 6 7 7 21 8 8 9 20 10 9 11 13 12 10 13
REMARK SMILES IDX 12 14 11 15 14 16 15 17 19 18 16 19 18 20 17 21
REMARK H PARENT
ROOT
ATOM      1  N   UNL     1      -2.702  -0.175  -1.102  1.00  0.00    -0.072 NA
ATOM      2  N   UNL     1      -2.612   0.559  -0.099  1.00  0.00    -0.133 NA
ENDROOT
BRANCH   1   3
ATOM      3  N   UNL     1      -3.821  -0.972  -1.101  1.00  0.00    -0.285 N 
ATOM      4  C   UNL     1      -4.429  -1.369   0.162  1.00  0.00    +0.169 C 
ATOM      5  C   UNL     1      -3.829  -1.959  -2.167  1.00  0.00    +0.169 C 
ENDBRANCH   1   3
BRANCH   2   6
ATOM      6  C   UNL     1      -1.448   1.339  -0.181  1.00  0.00    +0.088 A 
ATOM      7  C   UNL     1      -1.530   2.686  -0.523  1.00  0.00    +0.032 A 
ATOM      8  C   UNL     1      -0.194   0.801   0.119  1.00  0.00    +0.043 A 
ATOM      9  C   UNL     1      -0.373   3.468  -0.586  1.00  0.00    +0.031 A 
ATOM     10  C   UNL     1       0.981   1.597   0.065  1.00  0.00    +0.029 A 
ATOM     11  C   UNL     1       0.883   2.946  -0.303  1.00  0.00    +0.074 A 
ATOM     12  C   UNL     1       2.286   1.153   0.342  1.00  0.00    +0.082 A 
ATOM     13  N   UNL     1       1.944   3.753  -0.396  1.00  0.00    -0.236 NA
ATOM     14  N   UNL     1       3.372   1.952   0.235  1.00  0.00    -0.236 NA
ATOM     15  C   UNL     1       3.139   3.216  -0.127  1.00  0.00    +0.223 A 
BRANCH  12  16
ATOM     16  C   UNL     1       2.603  -0.218   0.774  1.00  0.00    +0.001 A 
ATOM     17  C   UNL     1       3.355  -1.069  -0.052  1.00  0.00    +0.010 A 
ATOM     18  C   UNL     1       2.184  -0.704   2.024  1.00  0.00    +0.010 A 
ATOM     19  C   UNL     1       3.658  -2.373   0.347  1.00  0.00    +0.001 A 
ATOM     20  C   UNL     1       2.487  -2.008   2.424  1.00  0.00    +0.001 A 
ATOM     21  C   UNL     1       3.221  -2.842   1.584  1.00  0.00    +0.000 A 
ENDBRANCH  12  16
ENDBRANCH   2   6
TORSDOF 3
