MODEL 1
REMARK VINA RESULT:    -7.262      0.000      0.000
REMARK INTER + INTRA:          -8.745
REMARK INTER:                  -8.323
REMARK INTRA:                  -0.422
REMARK UNBOUND:                -0.422
REMARK SMILES Cc1cc(C)c(-c2ccc(O)c([N+](=O)[O-])c2)[nH]1
REMARK SMILES IDX 7 1 8 2 9 3 10 4 12 5 16 6 6 7 2 8 3 9 17 10 4 11 1 12 5 14
REMARK SMILES IDX 13 15 14 16 15 17 11 18
REMARK H PARENT 17 13 11 19
ROOT
ATOM      1  C   UNL     1      25.826   0.470  53.354  1.00  0.00    +0.005 A 
ATOM      2  C   UNL     1      26.314   1.780  53.427  1.00  0.00    +0.014 A 
ATOM      3  C   UNL     1      27.685   2.026  53.534  1.00  0.00    +0.054 A 
ATOM      4  C   UNL     1      28.588   0.965  53.571  1.00  0.00    +0.194 A 
ATOM      5  C   UNL     1      28.109  -0.350  53.496  1.00  0.00    +0.311 A 
ATOM      6  C   UNL     1      26.730  -0.598  53.388  1.00  0.00    +0.100 A 
ENDROOT
BRANCH   1   7
ATOM      7  C   UNL     1      24.389   0.223  53.245  1.00  0.00    +0.049 A 
ATOM      8  C   UNL     1      22.403  -0.719  53.768  1.00  0.00    +0.012 A 
ATOM      9  C   UNL     1      22.193   0.136  52.709  1.00  0.00    +0.026 A 
ATOM     10  N   UNL     1      23.736  -0.654  54.084  1.00  0.00    -0.358 N 
ATOM     11  C   UNL     1      23.439   0.737  52.372  1.00  0.00    -0.025 A 
ATOM     12  C   UNL     1      21.465  -1.595  54.512  1.00  0.00    +0.064 C 
ATOM     13  H   UNL     1      24.183  -1.191  54.814  1.00  0.00    +0.166 HD
ATOM     14  C   UNL     1      23.649   1.738  51.290  1.00  0.00    +0.047 C 
ENDBRANCH   1   7
BRANCH   5  15
ATOM     15  N   UNL     1      29.028  -1.489  53.523  1.00  0.00    +0.066 N 
ATOM     16  O   UNL     1      30.191  -1.290  53.901  1.00  0.00    -0.258 OA
ATOM     17  O   UNL     1      28.582  -2.593  53.172  1.00  0.00    -0.258 OA
ENDBRANCH   5  15
BRANCH   4  18
ATOM     18  O   UNL     1      29.904   1.323  53.681  1.00  0.00    -0.502 OA
ATOM     19  H   UNL     1      30.370   0.709  54.287  1.00  0.00    +0.293 HD
ENDBRANCH   4  18
TORSDOF 3
ENDMDL
MODEL 2
REMARK VINA RESULT:    -7.107      1.220      2.276
REMARK INTER + INTRA:          -8.568
REMARK INTER:                  -8.048
REMARK INTRA:                  -0.520
REMARK UNBOUND:                -0.422
REMARK SMILES Cc1cc(C)c(-c2ccc(O)c([N+](=O)[O-])c2)[nH]1
REMARK SMILES IDX 7 1 8 2 9 3 10 4 12 5 16 6 6 7 2 8 3 9 17 10 4 11 1 12 5 14
REMARK SMILES IDX 13 15 14 16 15 17 11 18
REMARK H PARENT 17 13 11 19
ROOT
ATOM      1  C   UNL     1      25.776  -0.188  53.149  1.00  0.00    +0.005 A 
ATOM      2  C   UNL     1      26.346  -1.433  52.859  1.00  0.00    +0.014 A 
ATOM      3  C   UNL     1      27.730  -1.615  52.913  1.00  0.00    +0.054 A 
ATOM      4  C   UNL     1      28.565  -0.553  53.256  1.00  0.00    +0.194 A 
ATOM      5  C   UNL     1      28.004   0.696  53.551  1.00  0.00    +0.311 A 
ATOM      6  C   UNL     1      26.611   0.880  53.497  1.00  0.00    +0.100 A 
ENDROOT
BRANCH   1   7
ATOM      7  C   UNL     1      24.327  -0.006  53.087  1.00  0.00    +0.049 A 
ATOM      8  C   UNL     1      22.164  -0.408  53.602  1.00  0.00    +0.012 A 
ATOM      9  C   UNL     1      22.189   0.596  52.659  1.00  0.00    +0.026 A 
ATOM     10  N   UNL     1      23.465  -0.760  53.853  1.00  0.00    -0.358 N 
ATOM     11  C   UNL     1      23.548   0.859  52.329  1.00  0.00    -0.025 A 
ATOM     12  C   UNL     1      21.029  -1.069  54.289  1.00  0.00    +0.064 C 
ATOM     13  H   UNL     1      23.753  -1.487  54.494  1.00  0.00    +0.166 HD
ATOM     14  C   UNL     1      24.016   1.886  51.358  1.00  0.00    +0.047 C 
ENDBRANCH   1   7
BRANCH   5  15
ATOM     15  N   UNL     1      28.849   1.831  53.924  1.00  0.00    +0.066 N 
ATOM     16  O   UNL     1      29.444   1.783  55.010  1.00  0.00    -0.258 OA
ATOM     17  O   UNL     1      28.926   2.776  53.122  1.00  0.00    -0.258 OA
ENDBRANCH   5  15
BRANCH   4  18
ATOM     18  O   UNL     1      29.901  -0.846  53.274  1.00  0.00    -0.502 OA
ATOM     19  H   UNL     1      30.038  -1.772  53.566  1.00  0.00    +0.293 HD
ENDBRANCH   4  18
TORSDOF 3
ENDMDL
MODEL 3
REMARK VINA RESULT:    -7.044      1.149      1.920
REMARK INTER + INTRA:          -8.496
REMARK INTER:                  -8.057
REMARK INTRA:                  -0.439
REMARK UNBOUND:                -0.422
REMARK SMILES Cc1cc(C)c(-c2ccc(O)c([N+](=O)[O-])c2)[nH]1
REMARK SMILES IDX 7 1 8 2 9 3 10 4 12 5 16 6 6 7 2 8 3 9 17 10 4 11 1 12 5 14
REMARK SMILES IDX 13 15 14 16 15 17 11 18
REMARK H PARENT 17 13 11 19
ROOT
ATOM      1  C   UNL     1      25.078   0.378  53.220  1.00  0.00    +0.005 A 
ATOM      2  C   UNL     1      25.492   1.714  53.178  1.00  0.00    +0.014 A 
ATOM      3  C   UNL     1      26.851   2.040  53.158  1.00  0.00    +0.054 A 
ATOM      4  C   UNL     1      27.814   1.034  53.180  1.00  0.00    +0.194 A 
ATOM      5  C   UNL     1      27.409  -0.307  53.219  1.00  0.00    +0.311 A 
ATOM      6  C   UNL     1      26.043  -0.636  53.240  1.00  0.00    +0.100 A 
ENDROOT
BRANCH   1   7
ATOM      7  C   UNL     1      23.654   0.047  53.245  1.00  0.00    +0.049 A 
ATOM      8  C   UNL     1      21.519   0.020  52.505  1.00  0.00    +0.012 A 
ATOM      9  C   UNL     1      21.555  -0.664  53.700  1.00  0.00    +0.026 A 
ATOM     10  N   UNL     1      22.797   0.442  52.240  1.00  0.00    -0.358 N 
ATOM     11  C   UNL     1      22.897  -0.655  54.174  1.00  0.00    -0.025 A 
ATOM     12  C   UNL     1      20.393   0.316  51.586  1.00  0.00    +0.064 C 
ATOM     13  H   UNL     1      23.070   0.986  51.434  1.00  0.00    +0.166 HD
ATOM     14  C   UNL     1      23.371  -1.299  55.430  1.00  0.00    +0.047 C 
ENDBRANCH   1   7
BRANCH   5  15
ATOM     15  N   UNL     1      28.393  -1.390  53.235  1.00  0.00    +0.066 N 
ATOM     16  O   UNL     1      29.568  -1.107  53.508  1.00  0.00    -0.258 OA
ATOM     17  O   UNL     1      27.987  -2.536  52.980  1.00  0.00    -0.258 OA
ENDBRANCH   5  15
BRANCH   4  18
ATOM     18  O   UNL     1      29.111   1.469  53.160  1.00  0.00    -0.502 OA
ATOM     19  H   UNL     1      29.267   2.094  53.899  1.00  0.00    +0.293 HD
ENDBRANCH   4  18
TORSDOF 3
ENDMDL
MODEL 4
REMARK VINA RESULT:    -7.031      3.861      6.249
REMARK INTER + INTRA:          -8.480
REMARK INTER:                  -7.796
REMARK INTRA:                  -0.684
REMARK UNBOUND:                -0.422
REMARK SMILES Cc1cc(C)c(-c2ccc(O)c([N+](=O)[O-])c2)[nH]1
REMARK SMILES IDX 7 1 8 2 9 3 10 4 12 5 16 6 6 7 2 8 3 9 17 10 4 11 1 12 5 14
REMARK SMILES IDX 13 15 14 16 15 17 11 18
REMARK H PARENT 17 13 11 19
ROOT
ATOM      1  C   UNL     1      24.924  -0.436  54.155  1.00  0.00    +0.005 A 
ATOM      2  C   UNL     1      24.490  -1.246  55.211  1.00  0.00    +0.014 A 
ATOM      3  C   UNL     1      23.127  -1.445  55.444  1.00  0.00    +0.054 A 
ATOM      4  C   UNL     1      22.178  -0.836  54.624  1.00  0.00    +0.194 A 
ATOM      5  C   UNL     1      22.604  -0.027  53.563  1.00  0.00    +0.311 A 
ATOM      6  C   UNL     1      23.974   0.174  53.328  1.00  0.00    +0.100 A 
ENDROOT
BRANCH   1   7
ATOM      7  C   UNL     1      26.353  -0.231  53.921  1.00  0.00    +0.049 A 
ATOM      8  C   UNL     1      28.351   0.813  54.081  1.00  0.00    +0.012 A 
ATOM      9  C   UNL     1      28.524  -0.299  53.287  1.00  0.00    +0.026 A 
ATOM     10  N   UNL     1      27.033   0.840  54.460  1.00  0.00    -0.358 N 
ATOM     11  C   UNL     1      27.270  -0.966  53.181  1.00  0.00    -0.025 A 
ATOM     12  C   UNL     1      29.310   1.856  54.518  1.00  0.00    +0.064 C 
ATOM     13  H   UNL     1      26.611   1.556  55.035  1.00  0.00    +0.166 HD
ATOM     14  C   UNL     1      27.025  -2.223  52.422  1.00  0.00    +0.047 C 
ENDBRANCH   1   7
BRANCH   5  15
ATOM     15  N   UNL     1      21.636   0.621  52.676  1.00  0.00    +0.066 N 
ATOM     16  O   UNL     1      20.744  -0.078  52.177  1.00  0.00    -0.258 OA
ATOM     17  O   UNL     1      21.763   1.841  52.483  1.00  0.00    -0.258 OA
ENDBRANCH   5  15
BRANCH   4  18
ATOM     18  O   UNL     1      20.875  -1.100  54.947  1.00  0.00    -0.502 OA
ATOM     19  H   UNL     1      20.784  -1.203  55.918  1.00  0.00    +0.293 HD
ENDBRANCH   4  18
TORSDOF 3
ENDMDL
MODEL 5
REMARK VINA RESULT:    -6.957      3.534      5.907
REMARK INTER + INTRA:          -8.396
REMARK INTER:                  -7.879
REMARK INTRA:                  -0.516
REMARK UNBOUND:                -0.422
REMARK SMILES Cc1cc(C)c(-c2ccc(O)c([N+](=O)[O-])c2)[nH]1
REMARK SMILES IDX 7 1 8 2 9 3 10 4 12 5 16 6 6 7 2 8 3 9 17 10 4 11 1 12 5 14
REMARK SMILES IDX 13 15 14 16 15 17 11 18
REMARK H PARENT 17 13 11 19
ROOT
ATOM      1  C   UNL     1      24.926   0.388  53.338  1.00  0.00    +0.005 A 
ATOM      2  C   UNL     1      24.372   1.452  52.617  1.00  0.00    +0.014 A 
ATOM      3  C   UNL     1      22.987   1.590  52.499  1.00  0.00    +0.054 A 
ATOM      4  C   UNL     1      22.135   0.665  53.101  1.00  0.00    +0.194 A 
ATOM      5  C   UNL     1      22.680  -0.401  53.828  1.00  0.00    +0.311 A 
ATOM      6  C   UNL     1      24.074  -0.541  53.947  1.00  0.00    +0.100 A 
ENDROOT
BRANCH   1   7
ATOM      7  C   UNL     1      26.376   0.249  53.453  1.00  0.00    +0.049 A 
ATOM      8  C   UNL     1      28.479   0.859  54.012  1.00  0.00    +0.012 A 
ATOM      9  C   UNL     1      28.552  -0.371  53.397  1.00  0.00    +0.026 A 
ATOM     10  N   UNL     1      27.157   1.220  54.042  1.00  0.00    -0.358 N 
ATOM     11  C   UNL     1      27.231  -0.767  53.042  1.00  0.00    -0.025 A 
ATOM     12  C   UNL     1      29.540   1.730  54.575  1.00  0.00    +0.064 C 
ATOM     13  H   UNL     1      26.803   2.088  54.422  1.00  0.00    +0.166 HD
ATOM     14  C   UNL     1      26.865  -2.043  52.369  1.00  0.00    +0.047 C 
ENDBRANCH   1   7
BRANCH   5  15
ATOM     15  N   UNL     1      21.817  -1.386  54.481  1.00  0.00    +0.066 N 
ATOM     16  O   UNL     1      22.264  -1.992  55.465  1.00  0.00    -0.258 OA
ATOM     17  O   UNL     1      20.678  -1.550  54.013  1.00  0.00    -0.258 OA
ENDBRANCH   5  15
BRANCH   4  18
ATOM     18  O   UNL     1      20.800   0.899  52.918  1.00  0.00    -0.502 OA
ATOM     19  H   UNL     1      20.428   0.246  52.287  1.00  0.00    +0.293 HD
ENDBRANCH   4  18
TORSDOF 3
ENDMDL
MODEL 6
REMARK VINA RESULT:    -6.949      2.804      4.829
REMARK INTER + INTRA:          -8.386
REMARK INTER:                  -7.742
REMARK INTRA:                  -0.645
REMARK UNBOUND:                -0.422
REMARK SMILES Cc1cc(C)c(-c2ccc(O)c([N+](=O)[O-])c2)[nH]1
REMARK SMILES IDX 7 1 8 2 9 3 10 4 12 5 16 6 6 7 2 8 3 9 17 10 4 11 1 12 5 14
REMARK SMILES IDX 13 15 14 16 15 17 11 18
REMARK H PARENT 17 13 11 19
ROOT
ATOM      1  C   UNL     1      22.859   0.778  52.583  1.00  0.00    +0.005 A 
ATOM      2  C   UNL     1      21.684   0.277  53.154  1.00  0.00    +0.014 A 
ATOM      3  C   UNL     1      21.735  -0.614  54.229  1.00  0.00    +0.054 A 
ATOM      4  C   UNL     1      22.964  -1.016  54.749  1.00  0.00    +0.194 A 
ATOM      5  C   UNL     1      24.146  -0.518  54.187  1.00  0.00    +0.311 A 
ATOM      6  C   UNL     1      24.096   0.378  53.105  1.00  0.00    +0.100 A 
ENDROOT
BRANCH   1   7
ATOM      7  C   UNL     1      22.796   1.707  51.456  1.00  0.00    +0.049 A 
ATOM      8  C   UNL     1      22.463   2.348  49.315  1.00  0.00    +0.012 A 
ATOM      9  C   UNL     1      22.853   3.461  50.028  1.00  0.00    +0.026 A 
ATOM     10  N   UNL     1      22.430   1.295  50.193  1.00  0.00    -0.358 N 
ATOM     11  C   UNL     1      23.064   3.068  51.380  1.00  0.00    -0.025 A 
ATOM     12  C   UNL     1      22.118   2.182  47.883  1.00  0.00    +0.064 C 
ATOM     13  H   UNL     1      22.192   0.344  49.946  1.00  0.00    +0.166 HD
ATOM     14  C   UNL     1      23.481   3.974  52.486  1.00  0.00    +0.047 C 
ENDBRANCH   1   7
BRANCH   5  15
ATOM     15  N   UNL     1      25.454  -0.912  54.712  1.00  0.00    +0.066 N 
ATOM     16  O   UNL     1      25.624  -0.876  55.939  1.00  0.00    -0.258 OA
ATOM     17  O   UNL     1      26.317  -1.268  53.893  1.00  0.00    -0.258 OA
ENDBRANCH   5  15
BRANCH   4  18
ATOM     18  O   UNL     1      22.893  -1.891  55.798  1.00  0.00    -0.502 OA
ATOM     19  H   UNL     1      23.030  -2.809  55.480  1.00  0.00    +0.293 HD
ENDBRANCH   4  18
TORSDOF 3
ENDMDL
MODEL 7
REMARK VINA RESULT:    -6.887      3.245      5.720
REMARK INTER + INTRA:          -8.316
REMARK INTER:                  -7.829
REMARK INTRA:                  -0.487
REMARK UNBOUND:                -0.422
REMARK SMILES Cc1cc(C)c(-c2ccc(O)c([N+](=O)[O-])c2)[nH]1
REMARK SMILES IDX 7 1 8 2 9 3 10 4 12 5 16 6 6 7 2 8 3 9 17 10 4 11 1 12 5 14
REMARK SMILES IDX 13 15 14 16 15 17 11 18
REMARK H PARENT 17 13 11 19
ROOT
ATOM      1  C   UNL     1      25.614   0.129  53.201  1.00  0.00    +0.005 A 
ATOM      2  C   UNL     1      25.096   1.054  52.287  1.00  0.00    +0.014 A 
ATOM      3  C   UNL     1      23.717   1.228  52.151  1.00  0.00    +0.054 A 
ATOM      4  C   UNL     1      22.835   0.479  52.928  1.00  0.00    +0.194 A 
ATOM      5  C   UNL     1      23.344  -0.447  53.848  1.00  0.00    +0.311 A 
ATOM      6  C   UNL     1      24.732  -0.623  53.985  1.00  0.00    +0.100 A 
ENDROOT
BRANCH   1   7
ATOM      7  C   UNL     1      27.059  -0.048  53.333  1.00  0.00    +0.049 A 
ATOM      8  C   UNL     1      29.002  -1.193  53.480  1.00  0.00    +0.012 A 
ATOM      9  C   UNL     1      29.300   0.148  53.582  1.00  0.00    +0.026 A 
ATOM     10  N   UNL     1      27.643  -1.297  53.327  1.00  0.00    -0.358 N 
ATOM     11  C   UNL     1      28.081   0.880  53.489  1.00  0.00    -0.025 A 
ATOM     12  C   UNL     1      29.878  -2.389  53.514  1.00  0.00    +0.064 C 
ATOM     13  H   UNL     1      27.136  -2.167  53.243  1.00  0.00    +0.166 HD
ATOM     14  C   UNL     1      27.961   2.363  53.538  1.00  0.00    +0.047 C 
ENDBRANCH   1   7
BRANCH   5  15
ATOM     15  N   UNL     1      22.449  -1.245  54.687  1.00  0.00    +0.066 N 
ATOM     16  O   UNL     1      21.316  -1.497  54.255  1.00  0.00    -0.258 OA
ATOM     17  O   UNL     1      22.884  -1.631  55.784  1.00  0.00    -0.258 OA
ENDBRANCH   5  15
BRANCH   4  18
ATOM     18  O   UNL     1      21.508   0.730  52.710  1.00  0.00    -0.502 OA
ATOM     19  H   UNL     1      21.063   0.944  53.557  1.00  0.00    +0.293 HD
ENDBRANCH   4  18
TORSDOF 3
ENDMDL
MODEL 8
REMARK VINA RESULT:    -6.871      1.812      2.584
REMARK INTER + INTRA:          -8.297
REMARK INTER:                  -8.141
REMARK INTRA:                  -0.156
REMARK UNBOUND:                -0.422
REMARK SMILES Cc1cc(C)c(-c2ccc(O)c([N+](=O)[O-])c2)[nH]1
REMARK SMILES IDX 7 1 8 2 9 3 10 4 12 5 16 6 6 7 2 8 3 9 17 10 4 11 1 12 5 14
REMARK SMILES IDX 13 15 14 16 15 17 11 18
REMARK H PARENT 17 13 11 19
ROOT
ATOM      1  C   UNL     1      24.459   0.399  53.239  1.00  0.00    +0.005 A 
ATOM      2  C   UNL     1      24.850   1.223  52.177  1.00  0.00    +0.014 A 
ATOM      3  C   UNL     1      26.176   1.643  52.050  1.00  0.00    +0.054 A 
ATOM      4  C   UNL     1      27.130   1.247  52.985  1.00  0.00    +0.194 A 
ATOM      5  C   UNL     1      26.749   0.420  54.050  1.00  0.00    +0.311 A 
ATOM      6  C   UNL     1      25.415  -0.004  54.178  1.00  0.00    +0.100 A 
ENDROOT
BRANCH   1   7
ATOM      7  C   UNL     1      23.068  -0.033  53.365  1.00  0.00    +0.049 A 
ATOM      8  C   UNL     1      20.882  -0.171  52.811  1.00  0.00    +0.012 A 
ATOM      9  C   UNL     1      21.070  -0.915  53.955  1.00  0.00    +0.026 A 
ATOM     10  N   UNL     1      22.100   0.354  52.464  1.00  0.00    -0.358 N 
ATOM     11  C   UNL     1      22.446  -0.837  54.312  1.00  0.00    -0.025 A 
ATOM     12  C   UNL     1      19.661   0.094  52.012  1.00  0.00    +0.064 C 
ATOM     13  H   UNL     1      22.264   0.960  51.671  1.00  0.00    +0.166 HD
ATOM     14  C   UNL     1      23.072  -1.513  55.481  1.00  0.00    +0.047 C 
ENDBRANCH   1   7
BRANCH   5  15
ATOM     15  N   UNL     1      27.726  -0.024  55.045  1.00  0.00    +0.066 N 
ATOM     16  O   UNL     1      27.398   0.009  56.239  1.00  0.00    -0.258 OA
ATOM     17  O   UNL     1      28.829  -0.417  54.630  1.00  0.00    -0.258 OA
ENDBRANCH   5  15
BRANCH   4  18
ATOM     18  O   UNL     1      28.395   1.720  52.763  1.00  0.00    -0.502 OA
ATOM     19  H   UNL     1      29.055   1.030  52.984  1.00  0.00    +0.293 HD
ENDBRANCH   4  18
TORSDOF 3
ENDMDL
MODEL 9
REMARK VINA RESULT:    -6.747      2.220      3.743
REMARK INTER + INTRA:          -8.155
REMARK INTER:                  -7.802
REMARK INTRA:                  -0.353
REMARK UNBOUND:                -0.422
REMARK SMILES Cc1cc(C)c(-c2ccc(O)c([N+](=O)[O-])c2)[nH]1
REMARK SMILES IDX 7 1 8 2 9 3 10 4 12 5 16 6 6 7 2 8 3 9 17 10 4 11 1 12 5 14
REMARK SMILES IDX 13 15 14 16 15 17 11 18
REMARK H PARENT 17 13 11 19
ROOT
ATOM      1  C   UNL     1      27.114   1.358  52.450  1.00  0.00    +0.005 A 
ATOM      2  C   UNL     1      28.190   1.849  53.197  1.00  0.00    +0.014 A 
ATOM      3  C   UNL     1      29.107   0.976  53.788  1.00  0.00    +0.054 A 
ATOM      4  C   UNL     1      28.959  -0.402  53.639  1.00  0.00    +0.194 A 
ATOM      5  C   UNL     1      27.887  -0.903  52.890  1.00  0.00    +0.311 A 
ATOM      6  C   UNL     1      26.964  -0.025  52.296  1.00  0.00    +0.100 A 
ENDROOT
BRANCH   1   7
ATOM      7  C   UNL     1      26.158   2.279  51.838  1.00  0.00    +0.049 A 
ATOM      8  C   UNL     1      25.477   4.012  50.557  1.00  0.00    +0.012 A 
ATOM      9  C   UNL     1      24.359   3.468  51.150  1.00  0.00    +0.026 A 
ATOM     10  N   UNL     1      26.558   3.281  50.980  1.00  0.00    -0.358 N 
ATOM     11  C   UNL     1      24.777   2.373  51.959  1.00  0.00    -0.025 A 
ATOM     12  C   UNL     1      25.626   5.158  49.628  1.00  0.00    +0.064 C 
ATOM     13  H   UNL     1      27.517   3.463  50.718  1.00  0.00    +0.166 HD
ATOM     14  C   UNL     1      23.875   1.502  52.762  1.00  0.00    +0.047 C 
ENDBRANCH   1   7
BRANCH   5  15
ATOM     15  N   UNL     1      27.706  -2.344  52.705  1.00  0.00    +0.066 N 
ATOM     16  O   UNL     1      26.789  -2.725  51.964  1.00  0.00    -0.258 OA
ATOM     17  O   UNL     1      28.491  -3.101  53.298  1.00  0.00    -0.258 OA
ENDBRANCH   5  15
BRANCH   4  18
ATOM     18  O   UNL     1      29.913  -1.160  54.262  1.00  0.00    -0.502 OA
ATOM     19  H   UNL     1      30.156  -1.924  53.697  1.00  0.00    +0.293 HD
ENDBRANCH   4  18
TORSDOF 3
ENDMDL
