MODEL 1
REMARK VINA RESULT:    -7.562      0.000      0.000
REMARK INTER + INTRA:          -9.859
REMARK INTER:                  -8.668
REMARK INTRA:                  -1.191
REMARK UNBOUND:                -1.191
REMARK SMILES N#CC(C#N)=C(N)C(C#N)=C1C(=O)Nc2ncnc(-c3cccc(Cl)c3)c21
REMARK SMILES IDX 8 1 9 2 10 3 11 4 12 5 13 6 14 7 15 8 16 9 17 10 18 11 19 12
REMARK SMILES IDX 27 13 6 15 1 16 2 17 3 18 4 19 5 20 7 21 20 24 21 25 26 26
REMARK SMILES IDX 22 27 24 28 23 29 25 30
REMARK H PARENT 14 14 7 22 7 23
ROOT
ATOM      1  C   UNL     1      25.739   0.532  54.453  1.00  0.00    +0.091 C 
ATOM      2  C   UNL     1      26.938   0.406  55.240  1.00  0.00    +0.102 C 
ATOM      3  N   UNL     1      27.956   0.394  55.799  1.00  0.00    -0.192 NA
ATOM      4  C   UNL     1      24.598  -0.118  54.783  1.00  0.00    +0.073 C 
ATOM      5  C   UNL     1      24.596  -1.104  55.936  1.00  0.00    +0.259 C 
ATOM      6  O   UNL     1      25.444  -1.266  56.788  1.00  0.00    -0.269 OA
ATOM      7  N   UNL     1      23.422  -1.797  55.818  1.00  0.00    -0.306 N 
ATOM      8  C   UNL     1      22.636  -1.304  54.793  1.00  0.00    +0.145 A 
ATOM      9  N   UNL     1      21.429  -1.810  54.543  1.00  0.00    -0.218 NA
ATOM     10  C   UNL     1      20.782  -1.174  53.569  1.00  0.00    +0.224 A 
ATOM     11  N   UNL     1      21.233  -0.091  52.913  1.00  0.00    -0.236 NA
ATOM     12  C   UNL     1      22.459   0.403  53.241  1.00  0.00    +0.084 A 
ATOM     13  C   UNL     1      23.258  -0.230  54.164  1.00  0.00    +0.058 A 
ATOM     14  H   UNL     1      23.129  -2.539  56.434  1.00  0.00    +0.171 HD
ENDROOT
BRANCH   1  15
ATOM     15  C   UNL     1      25.947   1.377  53.258  1.00  0.00    +0.079 C 
ATOM     16  N   UNL     1      26.884   2.378  50.071  1.00  0.00    -0.192 NA
ATOM     17  C   UNL     1      26.644   1.668  50.958  1.00  0.00    +0.113 C 
ATOM     18  C   UNL     1      26.366   0.838  52.080  1.00  0.00    +0.153 C 
ATOM     19  C   UNL     1      26.564  -0.563  51.917  1.00  0.00    +0.113 C 
ATOM     20  N   UNL     1      26.681  -1.713  51.828  1.00  0.00    -0.192 NA
BRANCH  15  21
ATOM     21  N   UNL     1      25.750   2.741  53.473  1.00  0.00    -0.396 N 
ATOM     22  H   UNL     1      26.462   3.360  53.082  1.00  0.00    +0.156 HD
ATOM     23  H   UNL     1      24.811   3.102  53.296  1.00  0.00    +0.156 HD
ENDBRANCH  15  21
ENDBRANCH   1  15
BRANCH  12  24
ATOM     24  C   UNL     1      22.734   1.676  52.570  1.00  0.00    +0.002 A 
ATOM     25  C   UNL     1      22.588   2.901  53.242  1.00  0.00    +0.010 A 
ATOM     26  C   UNL     1      23.036   1.704  51.197  1.00  0.00    +0.030 A 
ATOM     27  C   UNL     1      22.779   4.114  52.572  1.00  0.00    +0.002 A 
ATOM     28  C   UNL     1      23.222   2.916  50.533  1.00  0.00    +0.041 A 
ATOM     29  C   UNL     1      23.103   4.121  51.218  1.00  0.00    +0.020 A 
ATOM     30 Cl   UNL     1      23.594   2.918  48.854  1.00  0.00    -0.084 Cl
ENDBRANCH  12  24
TORSDOF 3
ENDMDL
MODEL 2
REMARK VINA RESULT:    -7.261      3.180      6.362
REMARK INTER + INTRA:          -9.514
REMARK INTER:                  -8.293
REMARK INTRA:                  -1.220
REMARK UNBOUND:                -1.191
REMARK SMILES N#CC(C#N)=C(N)C(C#N)=C1C(=O)Nc2ncnc(-c3cccc(Cl)c3)c21
REMARK SMILES IDX 8 1 9 2 10 3 11 4 12 5 13 6 14 7 15 8 16 9 17 10 18 11 19 12
REMARK SMILES IDX 27 13 6 15 1 16 2 17 3 18 4 19 5 20 7 21 20 24 21 25 26 26
REMARK SMILES IDX 22 27 24 28 23 29 25 30
REMARK H PARENT 14 14 7 22 7 23
ROOT
ATOM      1  C   UNL     1      24.211   2.124  51.346  1.00  0.00    +0.091 C 
ATOM      2  C   UNL     1      24.744   1.099  52.206  1.00  0.00    +0.102 C 
ATOM      3  N   UNL     1      25.055   0.235  52.916  1.00  0.00    -0.192 NA
ATOM      4  C   UNL     1      25.015   2.946  50.633  1.00  0.00    +0.073 C 
ATOM      5  C   UNL     1      26.519   2.885  50.822  1.00  0.00    +0.259 C 
ATOM      6  O   UNL     1      27.170   2.034  51.390  1.00  0.00    -0.269 OA
ATOM      7  N   UNL     1      27.007   4.011  50.216  1.00  0.00    -0.306 N 
ATOM      8  C   UNL     1      26.009   4.725  49.581  1.00  0.00    +0.145 A 
ATOM      9  N   UNL     1      26.283   5.831  48.889  1.00  0.00    -0.218 NA
ATOM     10  C   UNL     1      25.217   6.353  48.285  1.00  0.00    +0.224 A 
ATOM     11  N   UNL     1      23.981   5.826  48.295  1.00  0.00    -0.236 NA
ATOM     12  C   UNL     1      23.772   4.673  48.990  1.00  0.00    +0.084 A 
ATOM     13  C   UNL     1      24.777   4.096  49.731  1.00  0.00    +0.058 A 
ATOM     14  H   UNL     1      27.981   4.267  50.180  1.00  0.00    +0.171 HD
ENDROOT
BRANCH   1  15
ATOM     15  C   UNL     1      22.735   2.186  51.409  1.00  0.00    +0.079 C 
ATOM     16  N   UNL     1      19.527   3.158  52.302  1.00  0.00    -0.192 NA
ATOM     17  C   UNL     1      20.682   3.198  52.198  1.00  0.00    +0.113 C 
ATOM     18  C   UNL     1      22.100   3.191  52.072  1.00  0.00    +0.153 C 
ATOM     19  C   UNL     1      22.812   4.261  52.684  1.00  0.00    +0.113 C 
ATOM     20  N   UNL     1      23.437   5.127  53.137  1.00  0.00    -0.192 NA
BRANCH  15  21
ATOM     21  N   UNL     1      22.086   1.109  50.805  1.00  0.00    -0.396 N 
ATOM     22  H   UNL     1      21.555   0.502  51.431  1.00  0.00    +0.156 HD
ATOM     23  H   UNL     1      21.558   1.311  49.953  1.00  0.00    +0.156 HD
ENDBRANCH  15  21
ENDBRANCH   1  15
BRANCH  12  24
ATOM     24  C   UNL     1      22.429   4.133  48.763  1.00  0.00    +0.002 A 
ATOM     25  C   UNL     1      22.232   2.947  48.037  1.00  0.00    +0.010 A 
ATOM     26  C   UNL     1      21.295   4.859  49.167  1.00  0.00    +0.030 A 
ATOM     27  C   UNL     1      20.944   2.479  47.760  1.00  0.00    +0.002 A 
ATOM     28  C   UNL     1      20.012   4.391  48.887  1.00  0.00    +0.041 A 
ATOM     29  C   UNL     1      19.832   3.199  48.192  1.00  0.00    +0.020 A 
ATOM     30 Cl   UNL     1      18.644   5.298  49.398  1.00  0.00    -0.084 Cl
ENDBRANCH  12  24
TORSDOF 3
ENDMDL
MODEL 3
REMARK VINA RESULT:    -6.949      2.864      4.880
REMARK INTER + INTRA:          -9.155
REMARK INTER:                  -8.683
REMARK INTRA:                  -0.472
REMARK UNBOUND:                -1.191
REMARK SMILES N#CC(C#N)=C(N)C(C#N)=C1C(=O)Nc2ncnc(-c3cccc(Cl)c3)c21
REMARK SMILES IDX 8 1 9 2 10 3 11 4 12 5 13 6 14 7 15 8 16 9 17 10 18 11 19 12
REMARK SMILES IDX 27 13 6 15 1 16 2 17 3 18 4 19 5 20 7 21 20 24 21 25 26 26
REMARK SMILES IDX 22 27 24 28 23 29 25 30
REMARK H PARENT 14 14 7 22 7 23
ROOT
ATOM      1  C   UNL     1      24.026   2.882  51.948  1.00  0.00    +0.091 C 
ATOM      2  C   UNL     1      23.887   4.067  51.142  1.00  0.00    +0.102 C 
ATOM      3  N   UNL     1      23.898   5.045  50.517  1.00  0.00    -0.192 NA
ATOM      4  C   UNL     1      23.022   1.983  52.073  1.00  0.00    +0.073 C 
ATOM      5  C   UNL     1      21.666   2.274  51.459  1.00  0.00    +0.259 C 
ATOM      6  O   UNL     1      21.374   3.134  50.655  1.00  0.00    -0.269 OA
ATOM      7  N   UNL     1      20.813   1.354  52.008  1.00  0.00    -0.306 N 
ATOM      8  C   UNL     1      21.482   0.455  52.818  1.00  0.00    +0.145 A 
ATOM      9  N   UNL     1      20.840  -0.551  53.411  1.00  0.00    -0.218 NA
ATOM     10  C   UNL     1      21.646  -1.359  54.097  1.00  0.00    +0.224 A 
ATOM     11  N   UNL     1      22.983  -1.248  54.168  1.00  0.00    -0.236 NA
ATOM     12  C   UNL     1      23.585  -0.219  53.508  1.00  0.00    +0.084 A 
ATOM     13  C   UNL     1      22.845   0.733  52.847  1.00  0.00    +0.058 A 
ATOM     14  H   UNL     1      19.828   1.294  51.808  1.00  0.00    +0.171 HD
ENDROOT
BRANCH   1  15
ATOM     15  C   UNL     1      25.334   2.829  52.635  1.00  0.00    +0.079 C 
ATOM     16  N   UNL     1      28.731   2.396  53.193  1.00  0.00    -0.192 NA
ATOM     17  C   UNL     1      27.736   2.524  52.609  1.00  0.00    +0.113 C 
ATOM     18  C   UNL     1      26.489   2.657  51.935  1.00  0.00    +0.153 C 
ATOM     19  C   UNL     1      26.508   2.582  50.513  1.00  0.00    +0.113 C 
ATOM     20  N   UNL     1      26.473   2.558  49.354  1.00  0.00    -0.192 NA
BRANCH  15  21
ATOM     21  N   UNL     1      25.260   2.896  54.026  1.00  0.00    -0.396 N 
ATOM     22  H   UNL     1      25.484   2.033  54.525  1.00  0.00    +0.156 HD
ATOM     23  H   UNL     1      25.701   3.703  54.470  1.00  0.00    +0.156 HD
ENDBRANCH  15  21
ENDBRANCH   1  15
BRANCH  12  24
ATOM     24  C   UNL     1      25.045  -0.333  53.534  1.00  0.00    +0.002 A 
ATOM     25  C   UNL     1      25.759  -0.823  52.428  1.00  0.00    +0.010 A 
ATOM     26  C   UNL     1      25.757  -0.063  54.716  1.00  0.00    +0.030 A 
ATOM     27  C   UNL     1      27.146  -0.999  52.489  1.00  0.00    +0.002 A 
ATOM     28  C   UNL     1      27.138  -0.242  54.774  1.00  0.00    +0.041 A 
ATOM     29  C   UNL     1      27.837  -0.701  53.661  1.00  0.00    +0.020 A 
ATOM     30 Cl   UNL     1      27.982   0.100  56.232  1.00  0.00    -0.084 Cl
ENDBRANCH  12  24
TORSDOF 3
ENDMDL
MODEL 4
REMARK VINA RESULT:    -6.926      2.697      5.729
REMARK INTER + INTRA:          -9.129
REMARK INTER:                  -8.052
REMARK INTRA:                  -1.077
REMARK UNBOUND:                -1.191
REMARK SMILES N#CC(C#N)=C(N)C(C#N)=C1C(=O)Nc2ncnc(-c3cccc(Cl)c3)c21
REMARK SMILES IDX 8 1 9 2 10 3 11 4 12 5 13 6 14 7 15 8 16 9 17 10 18 11 19 12
REMARK SMILES IDX 27 13 6 15 1 16 2 17 3 18 4 19 5 20 7 21 20 24 21 25 26 26
REMARK SMILES IDX 22 27 24 28 23 29 25 30
REMARK H PARENT 14 14 7 22 7 23
ROOT
ATOM      1  C   UNL     1      22.106   1.652  51.987  1.00  0.00    +0.091 C 
ATOM      2  C   UNL     1      21.388   0.869  52.960  1.00  0.00    +0.102 C 
ATOM      3  N   UNL     1      20.703   0.280  53.689  1.00  0.00    -0.192 NA
ATOM      4  C   UNL     1      23.453   1.597  51.882  1.00  0.00    +0.073 C 
ATOM      5  C   UNL     1      24.258   0.791  52.883  1.00  0.00    +0.259 C 
ATOM      6  O   UNL     1      23.857  -0.022  53.689  1.00  0.00    -0.269 OA
ATOM      7  N   UNL     1      25.558   1.178  52.700  1.00  0.00    -0.306 N 
ATOM      8  C   UNL     1      25.687   2.055  51.639  1.00  0.00    +0.145 A 
ATOM      9  N   UNL     1      26.881   2.515  51.263  1.00  0.00    -0.218 NA
ATOM     10  C   UNL     1      26.830   3.292  50.184  1.00  0.00    +0.224 A 
ATOM     11  N   UNL     1      25.722   3.570  49.476  1.00  0.00    -0.236 NA
ATOM     12  C   UNL     1      24.537   3.039  49.889  1.00  0.00    +0.084 A 
ATOM     13  C   UNL     1      24.453   2.300  51.045  1.00  0.00    +0.058 A 
ATOM     14  H   UNL     1      26.341   0.828  53.229  1.00  0.00    +0.171 HD
ENDROOT
BRANCH   1  15
ATOM     15  C   UNL     1      21.204   2.529  51.209  1.00  0.00    +0.079 C 
ATOM     16  N   UNL     1      19.486   5.347  50.140  1.00  0.00    -0.192 NA
ATOM     17  C   UNL     1      20.273   4.705  50.703  1.00  0.00    +0.113 C 
ATOM     18  C   UNL     1      21.201   3.877  51.396  1.00  0.00    +0.153 C 
ATOM     19  C   UNL     1      22.098   4.518  52.296  1.00  0.00    +0.113 C 
ATOM     20  N   UNL     1      22.871   4.995  53.019  1.00  0.00    -0.192 NA
BRANCH  15  21
ATOM     21  N   UNL     1      20.339   1.851  50.350  1.00  0.00    -0.396 N 
ATOM     22  H   UNL     1      20.388   0.832  50.383  1.00  0.00    +0.156 HD
ATOM     23  H   UNL     1      19.369   2.173  50.329  1.00  0.00    +0.156 HD
ENDBRANCH  15  21
ENDBRANCH   1  15
BRANCH  12  24
ATOM     24  C   UNL     1      23.462   3.285  48.924  1.00  0.00    +0.002 A 
ATOM     25  C   UNL     1      22.846   2.228  48.234  1.00  0.00    +0.010 A 
ATOM     26  C   UNL     1      23.104   4.600  48.581  1.00  0.00    +0.030 A 
ATOM     27  C   UNL     1      21.873   2.477  47.260  1.00  0.00    +0.002 A 
ATOM     28  C   UNL     1      22.136   4.844  47.608  1.00  0.00    +0.041 A 
ATOM     29  C   UNL     1      21.513   3.787  46.952  1.00  0.00    +0.020 A 
ATOM     30 Cl   UNL     1      21.716   6.464  47.211  1.00  0.00    -0.084 Cl
ENDBRANCH  12  24
TORSDOF 3
ENDMDL
MODEL 5
REMARK VINA RESULT:    -6.755      3.459      5.233
REMARK INTER + INTRA:          -8.934
REMARK INTER:                  -7.733
REMARK INTRA:                  -1.200
REMARK UNBOUND:                -1.191
REMARK SMILES N#CC(C#N)=C(N)C(C#N)=C1C(=O)Nc2ncnc(-c3cccc(Cl)c3)c21
REMARK SMILES IDX 8 1 9 2 10 3 11 4 12 5 13 6 14 7 15 8 16 9 17 10 18 11 19 12
REMARK SMILES IDX 27 13 6 15 1 16 2 17 3 18 4 19 5 20 7 21 20 24 21 25 26 26
REMARK SMILES IDX 22 27 24 28 23 29 25 30
REMARK H PARENT 14 14 7 22 7 23
ROOT
ATOM      1  C   UNL     1      24.387   3.556  50.040  1.00  0.00    +0.091 C 
ATOM      2  C   UNL     1      25.773   3.318  49.730  1.00  0.00    +0.102 C 
ATOM      3  N   UNL     1      26.881   3.222  49.396  1.00  0.00    -0.192 NA
ATOM      4  C   UNL     1      23.759   2.901  51.044  1.00  0.00    +0.073 C 
ATOM      5  C   UNL     1      24.478   1.795  51.792  1.00  0.00    +0.259 C 
ATOM      6  O   UNL     1      25.660   1.522  51.775  1.00  0.00    -0.269 OA
ATOM      7  N   UNL     1      23.506   1.146  52.504  1.00  0.00    -0.306 N 
ATOM      8  C   UNL     1      22.277   1.766  52.375  1.00  0.00    +0.145 A 
ATOM      9  N   UNL     1      21.205   1.318  53.029  1.00  0.00    -0.218 NA
ATOM     10  C   UNL     1      20.123   2.071  52.846  1.00  0.00    +0.224 A 
ATOM     11  N   UNL     1      20.078   3.209  52.132  1.00  0.00    -0.236 NA
ATOM     12  C   UNL     1      21.217   3.636  51.518  1.00  0.00    +0.084 A 
ATOM     13  C   UNL     1      22.370   2.887  51.557  1.00  0.00    +0.058 A 
ATOM     14  H   UNL     1      23.666   0.348  53.098  1.00  0.00    +0.171 HD
ENDROOT
BRANCH   1  15
ATOM     15  C   UNL     1      23.769   4.522  49.107  1.00  0.00    +0.079 C 
ATOM     16  N   UNL     1      21.994   5.809  46.418  1.00  0.00    -0.192 NA
ATOM     17  C   UNL     1      22.385   5.033  47.187  1.00  0.00    +0.113 C 
ATOM     18  C   UNL     1      22.911   4.109  48.134  1.00  0.00    +0.153 C 
ATOM     19  C   UNL     1      22.517   2.747  48.001  1.00  0.00    +0.113 C 
ATOM     20  N   UNL     1      22.203   1.631  47.956  1.00  0.00    -0.192 NA
BRANCH  15  21
ATOM     21  N   UNL     1      24.196   5.840  49.271  1.00  0.00    -0.396 N 
ATOM     22  H   UNL     1      24.725   6.032  50.123  1.00  0.00    +0.156 HD
ATOM     23  H   UNL     1      24.629   6.285  48.460  1.00  0.00    +0.156 HD
ENDBRANCH  15  21
ENDBRANCH   1  15
BRANCH  12  24
ATOM     24  C   UNL     1      21.056   4.968  50.931  1.00  0.00    +0.002 A 
ATOM     25  C   UNL     1      21.764   6.075  51.426  1.00  0.00    +0.010 A 
ATOM     26  C   UNL     1      20.093   5.190  49.930  1.00  0.00    +0.030 A 
ATOM     27  C   UNL     1      21.547   7.356  50.909  1.00  0.00    +0.002 A 
ATOM     28  C   UNL     1      19.879   6.469  49.419  1.00  0.00    +0.041 A 
ATOM     29  C   UNL     1      20.608   7.552  49.899  1.00  0.00    +0.020 A 
ATOM     30 Cl   UNL     1      18.698   6.710  48.193  1.00  0.00    -0.084 Cl
ENDBRANCH  12  24
TORSDOF 3
ENDMDL
MODEL 6
REMARK VINA RESULT:    -6.510      2.664      5.191
REMARK INTER + INTRA:          -8.652
REMARK INTER:                  -8.126
REMARK INTRA:                  -0.526
REMARK UNBOUND:                -1.191
REMARK SMILES N#CC(C#N)=C(N)C(C#N)=C1C(=O)Nc2ncnc(-c3cccc(Cl)c3)c21
REMARK SMILES IDX 8 1 9 2 10 3 11 4 12 5 13 6 14 7 15 8 16 9 17 10 18 11 19 12
REMARK SMILES IDX 27 13 6 15 1 16 2 17 3 18 4 19 5 20 7 21 20 24 21 25 26 26
REMARK SMILES IDX 22 27 24 28 23 29 25 30
REMARK H PARENT 14 14 7 22 7 23
ROOT
ATOM      1  C   UNL     1      21.859   1.484  52.509  1.00  0.00    +0.091 C 
ATOM      2  C   UNL     1      20.722   0.747  53.000  1.00  0.00    +0.102 C 
ATOM      3  N   UNL     1      19.735   0.249  53.353  1.00  0.00    -0.192 NA
ATOM      4  C   UNL     1      23.107   0.963  52.527  1.00  0.00    +0.073 C 
ATOM      5  C   UNL     1      23.358  -0.379  53.189  1.00  0.00    +0.259 C 
ATOM      6  O   UNL     1      22.544  -1.203  53.548  1.00  0.00    -0.269 OA
ATOM      7  N   UNL     1      24.718  -0.475  53.311  1.00  0.00    -0.306 N 
ATOM      8  C   UNL     1      25.363   0.595  52.718  1.00  0.00    +0.145 A 
ATOM      9  N   UNL     1      26.693   0.668  52.685  1.00  0.00    -0.218 NA
ATOM     10  C   UNL     1      27.146   1.726  52.016  1.00  0.00    +0.224 A 
ATOM     11  N   UNL     1      26.383   2.627  51.375  1.00  0.00    -0.236 NA
ATOM     12  C   UNL     1      25.030   2.477  51.414  1.00  0.00    +0.084 A 
ATOM     13  C   UNL     1      24.446   1.476  52.155  1.00  0.00    +0.058 A 
ATOM     14  H   UNL     1      25.203  -1.254  53.727  1.00  0.00    +0.171 HD
ENDROOT
BRANCH   1  15
ATOM     15  C   UNL     1      21.487   2.846  52.069  1.00  0.00    +0.079 C 
ATOM     16  N   UNL     1      20.239   5.442  50.136  1.00  0.00    -0.192 NA
ATOM     17  C   UNL     1      20.430   4.357  50.501  1.00  0.00    +0.113 C 
ATOM     18  C   UNL     1      20.714   3.042  50.966  1.00  0.00    +0.153 C 
ATOM     19  C   UNL     1      20.174   1.957  50.218  1.00  0.00    +0.113 C 
ATOM     20  N   UNL     1      19.733   1.040  49.663  1.00  0.00    -0.192 NA
BRANCH  15  21
ATOM     21  N   UNL     1      22.051   3.872  52.828  1.00  0.00    -0.396 N 
ATOM     22  H   UNL     1      22.675   3.577  53.580  1.00  0.00    +0.156 HD
ATOM     23  H   UNL     1      22.444   4.661  52.311  1.00  0.00    +0.156 HD
ENDBRANCH  15  21
ENDBRANCH   1  15
BRANCH  12  24
ATOM     24  C   UNL     1      24.348   3.426  50.531  1.00  0.00    +0.002 A 
ATOM     25  C   UNL     1      23.799   3.017  49.304  1.00  0.00    +0.010 A 
ATOM     26  C   UNL     1      24.333   4.798  50.840  1.00  0.00    +0.030 A 
ATOM     27  C   UNL     1      23.218   3.944  48.433  1.00  0.00    +0.002 A 
ATOM     28  C   UNL     1      23.755   5.719  49.967  1.00  0.00    +0.041 A 
ATOM     29  C   UNL     1      23.189   5.296  48.769  1.00  0.00    +0.020 A 
ATOM     30 Cl   UNL     1      23.748   7.389  50.374  1.00  0.00    -0.084 Cl
ENDBRANCH  12  24
TORSDOF 3
ENDMDL
MODEL 7
REMARK VINA RESULT:    -6.214      4.687      6.955
REMARK INTER + INTRA:          -8.313
REMARK INTER:                  -6.958
REMARK INTRA:                  -1.355
REMARK UNBOUND:                -1.191
REMARK SMILES N#CC(C#N)=C(N)C(C#N)=C1C(=O)Nc2ncnc(-c3cccc(Cl)c3)c21
REMARK SMILES IDX 8 1 9 2 10 3 11 4 12 5 13 6 14 7 15 8 16 9 17 10 18 11 19 12
REMARK SMILES IDX 27 13 6 15 1 16 2 17 3 18 4 19 5 20 7 21 20 24 21 25 26 26
REMARK SMILES IDX 22 27 24 28 23 29 25 30
REMARK H PARENT 14 14 7 22 7 23
ROOT
ATOM      1  C   UNL     1      23.631   4.626  50.792  1.00  0.00    +0.091 C 
ATOM      2  C   UNL     1      23.892   3.998  52.061  1.00  0.00    +0.102 C 
ATOM      3  N   UNL     1      24.145   3.606  53.124  1.00  0.00    -0.192 NA
ATOM      4  C   UNL     1      23.000   3.971  49.789  1.00  0.00    +0.073 C 
ATOM      5  C   UNL     1      22.661   2.500  49.942  1.00  0.00    +0.259 C 
ATOM      6  O   UNL     1      22.682   1.825  50.950  1.00  0.00    -0.269 OA
ATOM      7  N   UNL     1      22.326   2.073  48.686  1.00  0.00    -0.306 N 
ATOM      8  C   UNL     1      22.315   3.113  47.776  1.00  0.00    +0.145 A 
ATOM      9  N   UNL     1      21.967   2.916  46.504  1.00  0.00    -0.218 NA
ATOM     10  C   UNL     1      21.943   4.036  45.785  1.00  0.00    +0.224 A 
ATOM     11  N   UNL     1      22.183   5.271  46.258  1.00  0.00    -0.236 NA
ATOM     12  C   UNL     1      22.498   5.412  47.576  1.00  0.00    +0.084 A 
ATOM     13  C   UNL     1      22.645   4.316  48.394  1.00  0.00    +0.058 A 
ATOM     14  H   UNL     1      22.061   1.129  48.453  1.00  0.00    +0.171 HD
ENDROOT
BRANCH   1  15
ATOM     15  C   UNL     1      24.185   5.995  50.726  1.00  0.00    +0.079 C 
ATOM     16  N   UNL     1      26.395   8.619  50.210  1.00  0.00    -0.192 NA
ATOM     17  C   UNL     1      25.954   7.546  50.158  1.00  0.00    +0.113 C 
ATOM     18  C   UNL     1      25.390   6.239  50.143  1.00  0.00    +0.153 C 
ATOM     19  C   UNL     1      26.148   5.211  49.514  1.00  0.00    +0.113 C 
ATOM     20  N   UNL     1      26.711   4.344  48.988  1.00  0.00    -0.192 NA
BRANCH  15  21
ATOM     21  N   UNL     1      23.410   6.963  51.366  1.00  0.00    -0.396 N 
ATOM     22  H   UNL     1      23.912   7.586  52.000  1.00  0.00    +0.156 HD
ATOM     23  H   UNL     1      22.753   7.483  50.782  1.00  0.00    +0.156 HD
ENDBRANCH  15  21
ENDBRANCH   1  15
BRANCH  12  24
ATOM     24  C   UNL     1      22.557   6.819  47.977  1.00  0.00    +0.002 A 
ATOM     25  C   UNL     1      21.529   7.407  48.733  1.00  0.00    +0.010 A 
ATOM     26  C   UNL     1      23.593   7.647  47.510  1.00  0.00    +0.030 A 
ATOM     27  C   UNL     1      21.558   8.769  49.047  1.00  0.00    +0.002 A 
ATOM     28  C   UNL     1      23.616   9.005  47.823  1.00  0.00    +0.041 A 
ATOM     29  C   UNL     1      22.606   9.568  48.597  1.00  0.00    +0.020 A 
ATOM     30 Cl   UNL     1      24.898   9.992  47.240  1.00  0.00    -0.084 Cl
ENDBRANCH  12  24
TORSDOF 3
ENDMDL
MODEL 8
REMARK VINA RESULT:    -6.160      4.765      7.480
REMARK INTER + INTRA:          -8.252
REMARK INTER:                  -6.903
REMARK INTRA:                  -1.349
REMARK UNBOUND:                -1.191
REMARK SMILES N#CC(C#N)=C(N)C(C#N)=C1C(=O)Nc2ncnc(-c3cccc(Cl)c3)c21
REMARK SMILES IDX 8 1 9 2 10 3 11 4 12 5 13 6 14 7 15 8 16 9 17 10 18 11 19 12
REMARK SMILES IDX 27 13 6 15 1 16 2 17 3 18 4 19 5 20 7 21 20 24 21 25 26 26
REMARK SMILES IDX 22 27 24 28 23 29 25 30
REMARK H PARENT 14 14 7 22 7 23
ROOT
ATOM      1  C   UNL     1      21.212   4.412  50.931  1.00  0.00    +0.091 C 
ATOM      2  C   UNL     1      20.533   3.664  51.957  1.00  0.00    +0.102 C 
ATOM      3  N   UNL     1      20.100   3.047  52.839  1.00  0.00    -0.192 NA
ATOM      4  C   UNL     1      20.536   5.038  49.939  1.00  0.00    +0.073 C 
ATOM      5  C   UNL     1      19.035   4.856  49.816  1.00  0.00    +0.259 C 
ATOM      6  O   UNL     1      18.267   4.379  50.624  1.00  0.00    -0.269 OA
ATOM      7  N   UNL     1      18.711   5.343  48.578  1.00  0.00    -0.306 N 
ATOM      8  C   UNL     1      19.806   5.901  47.944  1.00  0.00    +0.145 A 
ATOM      9  N   UNL     1      19.693   6.475  46.746  1.00  0.00    -0.218 NA
ATOM     10  C   UNL     1      20.827   7.021  46.314  1.00  0.00    +0.224 A 
ATOM     11  N   UNL     1      21.981   7.065  47.002  1.00  0.00    -0.236 NA
ATOM     12  C   UNL     1      22.024   6.493  48.237  1.00  0.00    +0.084 A 
ATOM     13  C   UNL     1      20.940   5.816  48.746  1.00  0.00    +0.058 A 
ATOM     14  H   UNL     1      17.781   5.352  48.191  1.00  0.00    +0.171 HD
ENDROOT
BRANCH   1  15
ATOM     15  C   UNL     1      22.682   4.343  51.076  1.00  0.00    +0.079 C 
ATOM     16  N   UNL     1      25.960   3.249  50.777  1.00  0.00    -0.192 NA
ATOM     17  C   UNL     1      24.822   3.334  50.565  1.00  0.00    +0.113 C 
ATOM     18  C   UNL     1      23.419   3.451  50.359  1.00  0.00    +0.153 C 
ATOM     19  C   UNL     1      22.829   2.586  49.394  1.00  0.00    +0.113 C 
ATOM     20  N   UNL     1      22.305   1.926  48.597  1.00  0.00    -0.192 NA
BRANCH  15  21
ATOM     21  N   UNL     1      23.208   5.202  52.041  1.00  0.00    -0.396 N 
ATOM     22  H   UNL     1      23.576   6.089  51.693  1.00  0.00    +0.156 HD
ATOM     23  H   UNL     1      22.648   5.341  52.884  1.00  0.00    +0.156 HD
ENDBRANCH  15  21
ENDBRANCH   1  15
BRANCH  12  24
ATOM     24  C   UNL     1      23.285   6.774  48.928  1.00  0.00    +0.002 A 
ATOM     25  C   UNL     1      23.358   7.730  49.954  1.00  0.00    +0.010 A 
ATOM     26  C   UNL     1      24.480   6.174  48.494  1.00  0.00    +0.030 A 
ATOM     27  C   UNL     1      24.580   8.047  50.555  1.00  0.00    +0.002 A 
ATOM     28  C   UNL     1      25.697   6.494  49.094  1.00  0.00    +0.041 A 
ATOM     29  C   UNL     1      25.750   7.422  50.130  1.00  0.00    +0.020 A 
ATOM     30 Cl   UNL     1      27.142   5.742  48.545  1.00  0.00    -0.084 Cl
ENDBRANCH  12  24
TORSDOF 3
ENDMDL
MODEL 9
REMARK VINA RESULT:    -6.026      3.384      5.742
REMARK INTER + INTRA:          -8.098
REMARK INTER:                  -7.584
REMARK INTRA:                  -0.515
REMARK UNBOUND:                -1.191
REMARK SMILES N#CC(C#N)=C(N)C(C#N)=C1C(=O)Nc2ncnc(-c3cccc(Cl)c3)c21
REMARK SMILES IDX 8 1 9 2 10 3 11 4 12 5 13 6 14 7 15 8 16 9 17 10 18 11 19 12
REMARK SMILES IDX 27 13 6 15 1 16 2 17 3 18 4 19 5 20 7 21 20 24 21 25 26 26
REMARK SMILES IDX 22 27 24 28 23 29 25 30
REMARK H PARENT 14 14 7 22 7 23
ROOT
ATOM      1  C   UNL     1      19.913   2.204  51.752  1.00  0.00    +0.091 C 
ATOM      2  C   UNL     1      18.483   2.048  51.691  1.00  0.00    +0.102 C 
ATOM      3  N   UNL     1      17.327   2.037  51.587  1.00  0.00    -0.192 NA
ATOM      4  C   UNL     1      20.722   1.203  52.169  1.00  0.00    +0.073 C 
ATOM      5  C   UNL     1      20.120  -0.081  52.709  1.00  0.00    +0.259 C 
ATOM      6  O   UNL     1      18.970  -0.460  52.635  1.00  0.00    -0.269 OA
ATOM      7  N   UNL     1      21.155  -0.740  53.316  1.00  0.00    -0.306 N 
ATOM      8  C   UNL     1      22.356  -0.080  53.141  1.00  0.00    +0.145 A 
ATOM      9  N   UNL     1      23.497  -0.582  53.614  1.00  0.00    -0.218 NA
ATOM     10  C   UNL     1      24.565   0.146  53.297  1.00  0.00    +0.224 A 
ATOM     11  N   UNL     1      24.555   1.252  52.532  1.00  0.00    -0.236 NA
ATOM     12  C   UNL     1      23.362   1.694  52.046  1.00  0.00    +0.084 A 
ATOM     13  C   UNL     1      22.181   1.077  52.388  1.00  0.00    +0.058 A 
ATOM     14  H   UNL     1      21.073  -1.628  53.785  1.00  0.00    +0.171 HD
ENDROOT
BRANCH   1  15
ATOM     15  C   UNL     1      20.338   3.569  51.374  1.00  0.00    +0.079 C 
ATOM     16  N   UNL     1      21.119   6.346  49.448  1.00  0.00    -0.192 NA
ATOM     17  C   UNL     1      20.689   5.304  49.723  1.00  0.00    +0.113 C 
ATOM     18  C   UNL     1      20.202   4.020  50.097  1.00  0.00    +0.153 C 
ATOM     19  C   UNL     1      19.592   3.234  49.078  1.00  0.00    +0.113 C 
ATOM     20  N   UNL     1      19.060   2.566  48.293  1.00  0.00    -0.192 NA
BRANCH  15  21
ATOM     21  N   UNL     1      20.938   4.293  52.404  1.00  0.00    -0.396 N 
ATOM     22  H   UNL     1      21.060   3.793  53.286  1.00  0.00    +0.156 HD
ATOM     23  H   UNL     1      21.778   4.823  52.163  1.00  0.00    +0.156 HD
ENDBRANCH  15  21
ENDBRANCH   1  15
BRANCH  12  24
ATOM     24  C   UNL     1      23.533   2.795  51.095  1.00  0.00    +0.002 A 
ATOM     25  C   UNL     1      23.414   2.589  49.711  1.00  0.00    +0.010 A 
ATOM     26  C   UNL     1      23.940   4.064  51.544  1.00  0.00    +0.030 A 
ATOM     27  C   UNL     1      23.654   3.629  48.807  1.00  0.00    +0.002 A 
ATOM     28  C   UNL     1      24.180   5.097  50.639  1.00  0.00    +0.041 A 
ATOM     29  C   UNL     1      24.031   4.886  49.272  1.00  0.00    +0.020 A 
ATOM     30 Cl   UNL     1      24.673   6.639  51.219  1.00  0.00    -0.084 Cl
ENDBRANCH  12  24
TORSDOF 3
ENDMDL
