MODEL 1
REMARK VINA RESULT:    -8.757      0.000      0.000
REMARK INTER + INTRA:         -15.769
REMARK INTER:                 -12.852
REMARK INTRA:                  -2.916
REMARK UNBOUND:                -2.916
REMARK SMILES CN(CC/N=N/Nc1ccc2ncnc(-c3cccc(Cl)c3)c2c1)c1ccc(-c2ccccn2)[nH]1
REMARK SMILES IDX 5 1 6 2 4 3 3 4 2 5 1 6 25 7 26 8 35 9 27 10 28 11 29 13
REMARK SMILES IDX 30 14 34 15 31 16 33 17 32 18 7 19 8 21 9 22 24 23 10 24
REMARK SMILES IDX 23 25 11 26 15 27 12 28 14 29 13 30 16 31 17 32 22 33 18 34
REMARK SMILES IDX 20 35 19 36 21 37
REMARK H PARENT 35 12 7 20
ROOT
ATOM      1  N   UNL     1      18.908   3.434  52.048  1.00  0.00    -0.169 NA
ATOM      2  N   UNL     1      19.782   3.000  51.278  1.00  0.00    -0.075 NA
ENDROOT
BRANCH   1   3
ATOM      3  C   UNL     1      17.563   3.379  51.444  1.00  0.00    +0.190 C 
BRANCH   3   4
ATOM      4  C   UNL     1      17.412   2.081  50.638  1.00  0.00    +0.143 C 
BRANCH   4   5
ATOM      5  N   UNL     1      16.717   1.009  51.381  1.00  0.00    -0.359 N 
ATOM      6  C   UNL     1      15.369   1.348  51.850  1.00  0.00    +0.145 C 
BRANCH   5   7
ATOM      7  C   UNL     1      17.440   0.121  52.128  1.00  0.00    +0.106 A 
ATOM      8  C   UNL     1      17.105  -1.075  52.725  1.00  0.00    +0.047 A 
ATOM      9  N   UNL     1      18.782   0.310  52.354  1.00  0.00    -0.340 N 
ATOM     10  C   UNL     1      18.262  -1.577  53.368  1.00  0.00    +0.032 A 
ATOM     11  C   UNL     1      19.311  -0.709  53.116  1.00  0.00    +0.066 A 
ATOM     12  H   UNL     1      19.308   1.083  51.980  1.00  0.00    +0.168 HD
BRANCH  11  13
ATOM     13  C   UNL     1      20.709  -0.779  53.541  1.00  0.00    +0.086 A 
ATOM     14  C   UNL     1      21.742  -0.129  52.876  1.00  0.00    +0.030 A 
ATOM     15  N   UNL     1      20.918  -1.542  54.639  1.00  0.00    -0.255 NA
ATOM     16  C   UNL     1      23.041  -0.261  53.362  1.00  0.00    +0.004 A 
ATOM     17  C   UNL     1      22.186  -1.652  55.088  1.00  0.00    +0.112 A 
ATOM     18  C   UNL     1      23.270  -1.035  54.491  1.00  0.00    +0.020 A 
ENDBRANCH  11  13
ENDBRANCH   5   7
ENDBRANCH   4   5
ENDBRANCH   3   4
ENDBRANCH   1   3
BRANCH   2  19
ATOM     19  N   UNL     1      20.943   3.099  51.948  1.00  0.00    -0.260 N 
ATOM     20  H   UNL     1      20.857   3.404  52.910  1.00  0.00    +0.192 HD
BRANCH  19  21
ATOM     21  C   UNL     1      22.095   3.517  51.261  1.00  0.00    +0.059 A 
ATOM     22  C   UNL     1      22.052   4.414  50.196  1.00  0.00    +0.030 A 
ATOM     23  C   UNL     1      23.330   2.935  51.567  1.00  0.00    +0.040 A 
ATOM     24  C   UNL     1      23.217   4.758  49.500  1.00  0.00    +0.031 A 
ATOM     25  C   UNL     1      24.515   3.272  50.856  1.00  0.00    +0.029 A 
ATOM     26  C   UNL     1      24.451   4.209  49.818  1.00  0.00    +0.074 A 
ATOM     27  C   UNL     1      25.800   2.753  51.099  1.00  0.00    +0.082 A 
ATOM     28  N   UNL     1      25.521   4.596  49.116  1.00  0.00    -0.236 NA
ATOM     29  N   UNL     1      26.896   3.146  50.411  1.00  0.00    -0.236 NA
ATOM     30  C   UNL     1      26.694   4.049  49.448  1.00  0.00    +0.223 A 
BRANCH  27  31
ATOM     31  C   UNL     1      26.089   1.735  52.121  1.00  0.00    +0.002 A 
ATOM     32  C   UNL     1      26.149   2.089  53.481  1.00  0.00    +0.010 A 
ATOM     33  C   UNL     1      26.342   0.399  51.769  1.00  0.00    +0.030 A 
ATOM     34  C   UNL     1      26.434   1.136  54.463  1.00  0.00    +0.002 A 
ATOM     35  C   UNL     1      26.622  -0.551  52.753  1.00  0.00    +0.041 A 
ATOM     36  C   UNL     1      26.665  -0.189  54.098  1.00  0.00    +0.020 A 
ATOM     37 Cl   UNL     1      26.922  -2.184  52.300  1.00  0.00    -0.084 Cl
ENDBRANCH  27  31
ENDBRANCH  19  21
ENDBRANCH   2  19
TORSDOF 8
ENDMDL
MODEL 2
REMARK VINA RESULT:    -8.427      2.637      6.630
REMARK INTER + INTRA:         -15.285
REMARK INTER:                 -11.855
REMARK INTRA:                  -3.430
REMARK UNBOUND:                -2.916
REMARK SMILES CN(CC/N=N/Nc1ccc2ncnc(-c3cccc(Cl)c3)c2c1)c1ccc(-c2ccccn2)[nH]1
REMARK SMILES IDX 5 1 6 2 4 3 3 4 2 5 1 6 25 7 26 8 35 9 27 10 28 11 29 13
REMARK SMILES IDX 30 14 34 15 31 16 33 17 32 18 7 19 8 21 9 22 24 23 10 24
REMARK SMILES IDX 23 25 11 26 15 27 12 28 14 29 13 30 16 31 17 32 22 33 18 34
REMARK SMILES IDX 20 35 19 36 21 37
REMARK H PARENT 35 12 7 20
ROOT
ATOM      1  N   UNL     1      24.891   7.274  51.223  1.00  0.00    -0.169 NA
ATOM      2  N   UNL     1      23.775   6.747  51.377  1.00  0.00    -0.075 NA
ENDROOT
BRANCH   1   3
ATOM      3  C   UNL     1      24.875   8.296  50.159  1.00  0.00    +0.190 C 
BRANCH   3   4
ATOM      4  C   UNL     1      25.264   7.655  48.820  1.00  0.00    +0.143 C 
BRANCH   4   5
ATOM      5  N   UNL     1      26.191   6.512  48.965  1.00  0.00    -0.359 N 
ATOM      6  C   UNL     1      27.483   6.668  48.289  1.00  0.00    +0.145 C 
BRANCH   5   7
ATOM      7  C   UNL     1      25.693   5.245  49.091  1.00  0.00    +0.106 A 
ATOM      8  C   UNL     1      26.281   4.051  49.449  1.00  0.00    +0.047 A 
ATOM      9  N   UNL     1      24.356   4.986  48.911  1.00  0.00    -0.340 N 
ATOM     10  C   UNL     1      25.280   3.051  49.422  1.00  0.00    +0.032 A 
ATOM     11  C   UNL     1      24.074   3.650  49.099  1.00  0.00    +0.066 A 
ATOM     12  H   UNL     1      23.673   5.694  48.698  1.00  0.00    +0.168 HD
BRANCH  11  13
ATOM     13  C   UNL     1      22.743   3.061  48.956  1.00  0.00    +0.086 A 
ATOM     14  C   UNL     1      22.496   1.697  49.067  1.00  0.00    +0.030 A 
ATOM     15  N   UNL     1      21.764   3.958  48.695  1.00  0.00    -0.255 NA
ATOM     16  C   UNL     1      21.190   1.237  48.913  1.00  0.00    +0.004 A 
ATOM     17  C   UNL     1      20.508   3.484  48.551  1.00  0.00    +0.112 A 
ATOM     18  C   UNL     1      20.174   2.147  48.651  1.00  0.00    +0.020 A 
ENDBRANCH  11  13
ENDBRANCH   5   7
ENDBRANCH   4   5
ENDBRANCH   3   4
ENDBRANCH   1   3
BRANCH   2  19
ATOM     19  N   UNL     1      23.928   5.851  52.368  1.00  0.00    -0.260 N 
ATOM     20  H   UNL     1      24.873   5.763  52.724  1.00  0.00    +0.192 HD
BRANCH  19  21
ATOM     21  C   UNL     1      23.154   4.680  52.356  1.00  0.00    +0.059 A 
ATOM     22  C   UNL     1      21.767   4.695  52.220  1.00  0.00    +0.030 A 
ATOM     23  C   UNL     1      23.765   3.445  52.604  1.00  0.00    +0.040 A 
ATOM     24  C   UNL     1      21.027   3.507  52.274  1.00  0.00    +0.031 A 
ATOM     25  C   UNL     1      23.017   2.237  52.672  1.00  0.00    +0.029 A 
ATOM     26  C   UNL     1      21.630   2.276  52.489  1.00  0.00    +0.074 A 
ATOM     27  C   UNL     1      23.542   0.952  52.900  1.00  0.00    +0.082 A 
ATOM     28  N   UNL     1      20.858   1.185  52.515  1.00  0.00    -0.236 NA
ATOM     29  N   UNL     1      22.780  -0.164  52.912  1.00  0.00    -0.236 NA
ATOM     30  C   UNL     1      21.471   0.015  52.722  1.00  0.00    +0.223 A 
BRANCH  27  31
ATOM     31  C   UNL     1      24.968   0.686  53.148  1.00  0.00    +0.002 A 
ATOM     32  C   UNL     1      25.868   0.574  52.074  1.00  0.00    +0.010 A 
ATOM     33  C   UNL     1      25.461   0.504  54.451  1.00  0.00    +0.030 A 
ATOM     34  C   UNL     1      27.224   0.311  52.292  1.00  0.00    +0.002 A 
ATOM     35  C   UNL     1      26.815   0.245  54.666  1.00  0.00    +0.041 A 
ATOM     36  C   UNL     1      27.699   0.151  53.592  1.00  0.00    +0.020 A 
ATOM     37 Cl   UNL     1      27.399   0.034  56.271  1.00  0.00    -0.084 Cl
ENDBRANCH  27  31
ENDBRANCH  19  21
ENDBRANCH   2  19
TORSDOF 8
ENDMDL
MODEL 3
REMARK VINA RESULT:    -7.971      2.841      7.979
REMARK INTER + INTRA:         -14.615
REMARK INTER:                 -13.384
REMARK INTRA:                  -1.232
REMARK UNBOUND:                -2.916
REMARK SMILES CN(CC/N=N/Nc1ccc2ncnc(-c3cccc(Cl)c3)c2c1)c1ccc(-c2ccccn2)[nH]1
REMARK SMILES IDX 5 1 6 2 4 3 3 4 2 5 1 6 25 7 26 8 35 9 27 10 28 11 29 13
REMARK SMILES IDX 30 14 34 15 31 16 33 17 32 18 7 19 8 21 9 22 24 23 10 24
REMARK SMILES IDX 23 25 11 26 15 27 12 28 14 29 13 30 16 31 17 32 22 33 18 34
REMARK SMILES IDX 20 35 19 36 21 37
REMARK H PARENT 35 12 7 20
ROOT
ATOM      1  N   UNL     1      22.015   3.726  49.745  1.00  0.00    -0.169 NA
ATOM      2  N   UNL     1      22.540   3.244  50.764  1.00  0.00    -0.075 NA
ENDROOT
BRANCH   1   3
ATOM      3  C   UNL     1      21.907   5.195  49.823  1.00  0.00    +0.190 C 
BRANCH   3   4
ATOM      4  C   UNL     1      23.117   5.839  49.132  1.00  0.00    +0.143 C 
BRANCH   4   5
ATOM      5  N   UNL     1      24.305   5.941  50.006  1.00  0.00    -0.359 N 
ATOM      6  C   UNL     1      24.371   7.153  50.829  1.00  0.00    +0.145 C 
BRANCH   5   7
ATOM      7  C   UNL     1      25.488   5.380  49.612  1.00  0.00    +0.106 A 
ATOM      8  C   UNL     1      25.915   4.071  49.547  1.00  0.00    +0.047 A 
ATOM      9  N   UNL     1      26.508   6.151  49.108  1.00  0.00    -0.340 N 
ATOM     10  C   UNL     1      27.241   4.073  49.050  1.00  0.00    +0.032 A 
ATOM     11  C   UNL     1      27.597   5.380  48.762  1.00  0.00    +0.066 A 
ATOM     12  H   UNL     1      26.445   7.148  48.984  1.00  0.00    +0.168 HD
BRANCH  11  13
ATOM     13  C   UNL     1      28.845   5.914  48.219  1.00  0.00    +0.086 A 
ATOM     14  C   UNL     1      29.016   7.250  47.872  1.00  0.00    +0.030 A 
ATOM     15  N   UNL     1      29.825   4.994  48.071  1.00  0.00    -0.255 NA
ATOM     16  C   UNL     1      30.245   7.658  47.361  1.00  0.00    +0.004 A 
ATOM     17  C   UNL     1      31.006   5.417  47.574  1.00  0.00    +0.112 A 
ATOM     18  C   UNL     1      31.263   6.726  47.209  1.00  0.00    +0.020 A 
ENDBRANCH  11  13
ENDBRANCH   5   7
ENDBRANCH   4   5
ENDBRANCH   3   4
ENDBRANCH   1   3
BRANCH   2  19
ATOM     19  N   UNL     1      22.583   1.916  50.561  1.00  0.00    -0.260 N 
ATOM     20  H   UNL     1      22.096   1.594  49.732  1.00  0.00    +0.192 HD
BRANCH  19  21
ATOM     21  C   UNL     1      22.567   1.054  51.669  1.00  0.00    +0.059 A 
ATOM     22  C   UNL     1      21.391   0.508  52.181  1.00  0.00    +0.030 A 
ATOM     23  C   UNL     1      23.752   0.812  52.373  1.00  0.00    +0.040 A 
ATOM     24  C   UNL     1      21.413  -0.299  53.325  1.00  0.00    +0.031 A 
ATOM     25  C   UNL     1      23.778   0.002  53.543  1.00  0.00    +0.029 A 
ATOM     26  C   UNL     1      22.588  -0.569  54.010  1.00  0.00    +0.074 A 
ATOM     27  C   UNL     1      24.917  -0.309  54.307  1.00  0.00    +0.082 A 
ATOM     28  N   UNL     1      22.531  -1.358  55.088  1.00  0.00    -0.236 NA
ATOM     29  N   UNL     1      24.881  -1.120  55.388  1.00  0.00    -0.236 NA
ATOM     30  C   UNL     1      23.681  -1.600  55.724  1.00  0.00    +0.223 A 
BRANCH  27  31
ATOM     31  C   UNL     1      26.263   0.209  54.013  1.00  0.00    +0.002 A 
ATOM     32  C   UNL     1      26.485   1.594  53.909  1.00  0.00    +0.010 A 
ATOM     33  C   UNL     1      27.348  -0.657  53.799  1.00  0.00    +0.030 A 
ATOM     34  C   UNL     1      27.755   2.101  53.620  1.00  0.00    +0.002 A 
ATOM     35  C   UNL     1      28.615  -0.147  53.515  1.00  0.00    +0.041 A 
ATOM     36  C   UNL     1      28.824   1.228  53.428  1.00  0.00    +0.020 A 
ATOM     37 Cl   UNL     1      29.932  -1.226  53.264  1.00  0.00    -0.084 Cl
ENDBRANCH  27  31
ENDBRANCH  19  21
ENDBRANCH   2  19
TORSDOF 8
ENDMDL
MODEL 4
REMARK VINA RESULT:    -7.801      2.008      5.997
REMARK INTER + INTRA:         -14.365
REMARK INTER:                 -11.642
REMARK INTRA:                  -2.724
REMARK UNBOUND:                -2.916
REMARK SMILES CN(CC/N=N/Nc1ccc2ncnc(-c3cccc(Cl)c3)c2c1)c1ccc(-c2ccccn2)[nH]1
REMARK SMILES IDX 5 1 6 2 4 3 3 4 2 5 1 6 25 7 26 8 35 9 27 10 28 11 29 13
REMARK SMILES IDX 30 14 34 15 31 16 33 17 32 18 7 19 8 21 9 22 24 23 10 24
REMARK SMILES IDX 23 25 11 26 15 27 12 28 14 29 13 30 16 31 17 32 22 33 18 34
REMARK SMILES IDX 20 35 19 36 21 37
REMARK H PARENT 35 12 7 20
ROOT
ATOM      1  N   UNL     1      21.305   3.136  47.740  1.00  0.00    -0.169 NA
ATOM      2  N   UNL     1      21.724   2.089  48.265  1.00  0.00    -0.075 NA
ENDROOT
BRANCH   1   3
ATOM      3  C   UNL     1      22.406   4.032  47.341  1.00  0.00    +0.190 C 
BRANCH   3   4
ATOM      4  C   UNL     1      22.281   5.368  48.086  1.00  0.00    +0.143 C 
BRANCH   4   5
ATOM      5  N   UNL     1      22.558   5.260  49.534  1.00  0.00    -0.359 N 
ATOM      6  C   UNL     1      23.959   4.997  49.882  1.00  0.00    +0.145 C 
BRANCH   5   7
ATOM      7  C   UNL     1      21.596   4.774  50.375  1.00  0.00    +0.106 A 
ATOM      8  C   UNL     1      21.655   4.279  51.660  1.00  0.00    +0.047 A 
ATOM      9  N   UNL     1      20.270   4.777  50.016  1.00  0.00    -0.340 N 
ATOM     10  C   UNL     1      20.341   3.926  52.048  1.00  0.00    +0.032 A 
ATOM     11  C   UNL     1      19.478   4.256  51.016  1.00  0.00    +0.066 A 
ATOM     12  H   UNL     1      19.929   5.142  49.142  1.00  0.00    +0.168 HD
BRANCH  11  13
ATOM     13  C   UNL     1      18.026   4.107  50.923  1.00  0.00    +0.086 A 
ATOM     14  C   UNL     1      17.311   4.315  49.749  1.00  0.00    +0.030 A 
ATOM     15  N   UNL     1      17.428   3.756  52.085  1.00  0.00    -0.255 NA
ATOM     16  C   UNL     1      15.929   4.147  49.766  1.00  0.00    +0.004 A 
ATOM     17  C   UNL     1      16.088   3.600  52.073  1.00  0.00    +0.112 A 
ATOM     18  C   UNL     1      15.302   3.780  50.950  1.00  0.00    +0.020 A 
ENDBRANCH  11  13
ENDBRANCH   5   7
ENDBRANCH   4   5
ENDBRANCH   3   4
ENDBRANCH   1   3
BRANCH   2  19
ATOM     19  N   UNL     1      20.631   1.369  48.570  1.00  0.00    -0.260 N 
ATOM     20  H   UNL     1      19.787   1.645  48.082  1.00  0.00    +0.192 HD
BRANCH  19  21
ATOM     21  C   UNL     1      20.467   0.898  49.883  1.00  0.00    +0.059 A 
ATOM     22  C   UNL     1      19.216   0.646  50.442  1.00  0.00    +0.030 A 
ATOM     23  C   UNL     1      21.584   0.780  50.718  1.00  0.00    +0.040 A 
ATOM     24  C   UNL     1      19.095   0.235  51.775  1.00  0.00    +0.031 A 
ATOM     25  C   UNL     1      21.466   0.373  52.077  1.00  0.00    +0.029 A 
ATOM     26  C   UNL     1      20.200   0.086  52.600  1.00  0.00    +0.074 A 
ATOM     27  C   UNL     1      22.527   0.212  52.986  1.00  0.00    +0.082 A 
ATOM     28  N   UNL     1      20.006  -0.323  53.858  1.00  0.00    -0.236 NA
ATOM     29  N   UNL     1      22.351  -0.217  54.256  1.00  0.00    -0.236 NA
ATOM     30  C   UNL     1      21.091  -0.459  54.626  1.00  0.00    +0.223 A 
BRANCH  27  31
ATOM     31  C   UNL     1      23.934   0.490  52.656  1.00  0.00    +0.002 A 
ATOM     32  C   UNL     1      24.295   1.703  52.044  1.00  0.00    +0.010 A 
ATOM     33  C   UNL     1      24.943  -0.453  52.910  1.00  0.00    +0.030 A 
ATOM     34  C   UNL     1      25.626   1.978  51.715  1.00  0.00    +0.002 A 
ATOM     35  C   UNL     1      26.271  -0.175  52.583  1.00  0.00    +0.041 A 
ATOM     36  C   UNL     1      26.617   1.038  51.990  1.00  0.00    +0.020 A 
ATOM     37 Cl   UNL     1      27.493  -1.342  52.911  1.00  0.00    -0.084 Cl
ENDBRANCH  27  31
ENDBRANCH  19  21
ENDBRANCH   2  19
TORSDOF 8
ENDMDL
MODEL 5
REMARK VINA RESULT:    -7.775      2.481      6.122
REMARK INTER + INTRA:         -14.327
REMARK INTER:                 -11.947
REMARK INTRA:                  -2.381
REMARK UNBOUND:                -2.916
REMARK SMILES CN(CC/N=N/Nc1ccc2ncnc(-c3cccc(Cl)c3)c2c1)c1ccc(-c2ccccn2)[nH]1
REMARK SMILES IDX 5 1 6 2 4 3 3 4 2 5 1 6 25 7 26 8 35 9 27 10 28 11 29 13
REMARK SMILES IDX 30 14 34 15 31 16 33 17 32 18 7 19 8 21 9 22 24 23 10 24
REMARK SMILES IDX 23 25 11 26 15 27 12 28 14 29 13 30 16 31 17 32 22 33 18 34
REMARK SMILES IDX 20 35 19 36 21 37
REMARK H PARENT 35 12 7 20
ROOT
ATOM      1  N   UNL     1      18.997  -0.138  51.840  1.00  0.00    -0.169 NA
ATOM      2  N   UNL     1      19.503   0.407  52.837  1.00  0.00    -0.075 NA
ENDROOT
BRANCH   1   3
ATOM      3  C   UNL     1      18.499   0.849  50.865  1.00  0.00    +0.190 C 
BRANCH   3   4
ATOM      4  C   UNL     1      18.107   2.142  51.593  1.00  0.00    +0.143 C 
BRANCH   4   5
ATOM      5  N   UNL     1      18.654   3.360  50.959  1.00  0.00    -0.359 N 
ATOM      6  C   UNL     1      18.313   3.533  49.542  1.00  0.00    +0.145 C 
BRANCH   5   7
ATOM      7  C   UNL     1      19.848   3.871  51.387  1.00  0.00    +0.106 A 
ATOM      8  C   UNL     1      20.708   3.492  52.396  1.00  0.00    +0.047 A 
ATOM      9  N   UNL     1      20.443   4.928  50.741  1.00  0.00    -0.340 N 
ATOM     10  C   UNL     1      21.809   4.382  52.383  1.00  0.00    +0.032 A 
ATOM     11  C   UNL     1      21.641   5.268  51.331  1.00  0.00    +0.066 A 
ATOM     12  H   UNL     1      20.057   5.370  49.922  1.00  0.00    +0.168 HD
BRANCH  11  13
ATOM     13  C   UNL     1      22.497   6.366  50.884  1.00  0.00    +0.086 A 
ATOM     14  C   UNL     1      23.809   6.533  51.312  1.00  0.00    +0.030 A 
ATOM     15  N   UNL     1      21.900   7.218  50.018  1.00  0.00    -0.255 NA
ATOM     16  C   UNL     1      24.541   7.614  50.826  1.00  0.00    +0.004 A 
ATOM     17  C   UNL     1      22.632   8.257  49.563  1.00  0.00    +0.112 A 
ATOM     18  C   UNL     1      23.943   8.494  49.932  1.00  0.00    +0.020 A 
ENDBRANCH  11  13
ENDBRANCH   5   7
ENDBRANCH   4   5
ENDBRANCH   3   4
ENDBRANCH   1   3
BRANCH   2  19
ATOM     19  N   UNL     1      19.918  -0.594  53.631  1.00  0.00    -0.260 N 
ATOM     20  H   UNL     1      19.272  -0.852  54.368  1.00  0.00    +0.192 HD
BRANCH  19  21
ATOM     21  C   UNL     1      21.286  -0.705  53.934  1.00  0.00    +0.059 A 
ATOM     22  C   UNL     1      21.757  -1.404  55.043  1.00  0.00    +0.030 A 
ATOM     23  C   UNL     1      22.221   0.003  53.170  1.00  0.00    +0.040 A 
ATOM     24  C   UNL     1      23.124  -1.439  55.341  1.00  0.00    +0.031 A 
ATOM     25  C   UNL     1      23.610  -0.019  53.476  1.00  0.00    +0.029 A 
ATOM     26  C   UNL     1      24.061  -0.765  54.571  1.00  0.00    +0.074 A 
ATOM     27  C   UNL     1      24.624   0.645  52.762  1.00  0.00    +0.082 A 
ATOM     28  N   UNL     1      25.351  -0.856  54.912  1.00  0.00    -0.236 NA
ATOM     29  N   UNL     1      25.934   0.550  53.081  1.00  0.00    -0.236 NA
ATOM     30  C   UNL     1      26.227  -0.197  54.148  1.00  0.00    +0.223 A 
BRANCH  27  31
ATOM     31  C   UNL     1      24.370   1.508  51.596  1.00  0.00    +0.002 A 
ATOM     32  C   UNL     1      25.285   2.516  51.245  1.00  0.00    +0.010 A 
ATOM     33  C   UNL     1      23.202   1.371  50.828  1.00  0.00    +0.030 A 
ATOM     34  C   UNL     1      25.054   3.350  50.148  1.00  0.00    +0.002 A 
ATOM     35  C   UNL     1      22.976   2.204  49.731  1.00  0.00    +0.041 A 
ATOM     36  C   UNL     1      23.899   3.190  49.386  1.00  0.00    +0.020 A 
ATOM     37 Cl   UNL     1      21.542   2.015  48.799  1.00  0.00    -0.084 Cl
ENDBRANCH  27  31
ENDBRANCH  19  21
ENDBRANCH   2  19
TORSDOF 8
ENDMDL
MODEL 6
REMARK VINA RESULT:    -7.698      2.057      6.890
REMARK INTER + INTRA:         -14.214
REMARK INTER:                 -12.211
REMARK INTRA:                  -2.004
REMARK UNBOUND:                -2.916
REMARK SMILES CN(CC/N=N/Nc1ccc2ncnc(-c3cccc(Cl)c3)c2c1)c1ccc(-c2ccccn2)[nH]1
REMARK SMILES IDX 5 1 6 2 4 3 3 4 2 5 1 6 25 7 26 8 35 9 27 10 28 11 29 13
REMARK SMILES IDX 30 14 34 15 31 16 33 17 32 18 7 19 8 21 9 22 24 23 10 24
REMARK SMILES IDX 23 25 11 26 15 27 12 28 14 29 13 30 16 31 17 32 22 33 18 34
REMARK SMILES IDX 20 35 19 36 21 37
REMARK H PARENT 35 12 7 20
ROOT
ATOM      1  N   UNL     1      26.014   3.535  49.901  1.00  0.00    -0.169 NA
ATOM      2  N   UNL     1      26.161   3.216  51.094  1.00  0.00    -0.075 NA
ENDROOT
BRANCH   1   3
ATOM      3  C   UNL     1      25.786   4.984  49.743  1.00  0.00    +0.190 C 
BRANCH   3   4
ATOM      4  C   UNL     1      24.378   5.343  50.239  1.00  0.00    +0.143 C 
BRANCH   4   5
ATOM      5  N   UNL     1      23.345   4.371  49.821  1.00  0.00    -0.359 N 
ATOM      6  C   UNL     1      23.155   4.249  48.372  1.00  0.00    +0.145 C 
BRANCH   5   7
ATOM      7  C   UNL     1      22.260   4.147  50.622  1.00  0.00    +0.106 A 
ATOM      8  C   UNL     1      22.146   3.850  51.963  1.00  0.00    +0.047 A 
ATOM      9  N   UNL     1      20.981   4.267  50.136  1.00  0.00    -0.340 N 
ATOM     10  C   UNL     1      20.768   3.732  52.264  1.00  0.00    +0.032 A 
ATOM     11  C   UNL     1      20.045   4.012  51.116  1.00  0.00    +0.066 A 
ATOM     12  H   UNL     1      20.766   4.537  49.191  1.00  0.00    +0.168 HD
BRANCH  11  13
ATOM     13  C   UNL     1      18.599   4.040  50.901  1.00  0.00    +0.086 A 
ATOM     14  C   UNL     1      18.015   4.398  49.691  1.00  0.00    +0.030 A 
ATOM     15  N   UNL     1      17.870   3.695  51.987  1.00  0.00    -0.255 NA
ATOM     16  C   UNL     1      16.625   4.393  49.590  1.00  0.00    +0.004 A 
ATOM     17  C   UNL     1      16.526   3.698  51.860  1.00  0.00    +0.112 A 
ATOM     18  C   UNL     1      15.864   4.034  50.695  1.00  0.00    +0.020 A 
ENDBRANCH  11  13
ENDBRANCH   5   7
ENDBRANCH   4   5
ENDBRANCH   3   4
ENDBRANCH   1   3
BRANCH   2  19
ATOM     19  N   UNL     1      26.365   1.887  51.094  1.00  0.00    -0.260 N 
ATOM     20  H   UNL     1      26.240   1.434  50.196  1.00  0.00    +0.192 HD
BRANCH  19  21
ATOM     21  C   UNL     1      26.000   1.140  52.226  1.00  0.00    +0.059 A 
ATOM     22  C   UNL     1      26.933   0.653  53.140  1.00  0.00    +0.030 A 
ATOM     23  C   UNL     1      24.665   0.758  52.400  1.00  0.00    +0.040 A 
ATOM     24  C   UNL     1      26.531  -0.139  54.222  1.00  0.00    +0.031 A 
ATOM     25  C   UNL     1      24.253  -0.057  53.492  1.00  0.00    +0.029 A 
ATOM     26  C   UNL     1      25.205  -0.496  54.419  1.00  0.00    +0.074 A 
ATOM     27  C   UNL     1      22.938  -0.477  53.758  1.00  0.00    +0.082 A 
ATOM     28  N   UNL     1      24.898  -1.245  55.483  1.00  0.00    -0.236 NA
ATOM     29  N   UNL     1      22.606  -1.220  54.838  1.00  0.00    -0.236 NA
ATOM     30  C   UNL     1      23.611  -1.569  55.644  1.00  0.00    +0.223 A 
BRANCH  27  31
ATOM     31  C   UNL     1      21.788  -0.157  52.897  1.00  0.00    +0.002 A 
ATOM     32  C   UNL     1      20.480  -0.206  53.409  1.00  0.00    +0.010 A 
ATOM     33  C   UNL     1      21.960   0.173  51.542  1.00  0.00    +0.030 A 
ATOM     34  C   UNL     1      19.377   0.086  52.602  1.00  0.00    +0.002 A 
ATOM     35  C   UNL     1      20.857   0.467  50.740  1.00  0.00    +0.041 A 
ATOM     36  C   UNL     1      19.567   0.429  51.265  1.00  0.00    +0.020 A 
ATOM     37 Cl   UNL     1      21.092   0.877  49.085  1.00  0.00    -0.084 Cl
ENDBRANCH  27  31
ENDBRANCH  19  21
ENDBRANCH   2  19
TORSDOF 8
ENDMDL
MODEL 7
REMARK VINA RESULT:    -7.680      2.274      5.209
REMARK INTER + INTRA:         -14.188
REMARK INTER:                 -12.268
REMARK INTRA:                  -1.920
REMARK UNBOUND:                -2.916
REMARK SMILES CN(CC/N=N/Nc1ccc2ncnc(-c3cccc(Cl)c3)c2c1)c1ccc(-c2ccccn2)[nH]1
REMARK SMILES IDX 5 1 6 2 4 3 3 4 2 5 1 6 25 7 26 8 35 9 27 10 28 11 29 13
REMARK SMILES IDX 30 14 34 15 31 16 33 17 32 18 7 19 8 21 9 22 24 23 10 24
REMARK SMILES IDX 23 25 11 26 15 27 12 28 14 29 13 30 16 31 17 32 22 33 18 34
REMARK SMILES IDX 20 35 19 36 21 37
REMARK H PARENT 35 12 7 20
ROOT
ATOM      1  N   UNL     1      24.434   5.097  49.206  1.00  0.00    -0.169 NA
ATOM      2  N   UNL     1      24.392   5.376  50.417  1.00  0.00    -0.075 NA
ENDROOT
BRANCH   1   3
ATOM      3  C   UNL     1      23.679   6.067  48.390  1.00  0.00    +0.190 C 
BRANCH   3   4
ATOM      4  C   UNL     1      22.661   5.324  47.514  1.00  0.00    +0.143 C 
BRANCH   4   5
ATOM      5  N   UNL     1      21.467   4.873  48.259  1.00  0.00    -0.359 N 
ATOM      6  C   UNL     1      20.929   5.841  49.219  1.00  0.00    +0.145 C 
BRANCH   5   7
ATOM      7  C   UNL     1      21.305   3.545  48.542  1.00  0.00    +0.106 A 
ATOM      8  C   UNL     1      22.051   2.432  48.219  1.00  0.00    +0.047 A 
ATOM      9  N   UNL     1      20.275   3.109  49.341  1.00  0.00    -0.340 N 
ATOM     10  C   UNL     1      21.415   1.304  48.791  1.00  0.00    +0.032 A 
ATOM     11  C   UNL     1      20.312   1.741  49.505  1.00  0.00    +0.066 A 
ATOM     12  H   UNL     1      19.604   3.723  49.771  1.00  0.00    +0.168 HD
BRANCH  11  13
ATOM     13  C   UNL     1      19.337   0.979  50.284  1.00  0.00    +0.086 A 
ATOM     14  C   UNL     1      19.657   0.303  51.457  1.00  0.00    +0.030 A 
ATOM     15  N   UNL     1      18.088   0.977  49.762  1.00  0.00    -0.255 NA
ATOM     16  C   UNL     1      18.654  -0.396  52.124  1.00  0.00    +0.004 A 
ATOM     17  C   UNL     1      17.136   0.292  50.429  1.00  0.00    +0.112 A 
ATOM     18  C   UNL     1      17.366  -0.401  51.603  1.00  0.00    +0.020 A 
ENDBRANCH  11  13
ENDBRANCH   5   7
ENDBRANCH   4   5
ENDBRANCH   3   4
ENDBRANCH   1   3
BRANCH   2  19
ATOM     19  N   UNL     1      25.117   4.429  51.036  1.00  0.00    -0.260 N 
ATOM     20  H   UNL     1      26.009   4.220  50.603  1.00  0.00    +0.192 HD
BRANCH  19  21
ATOM     21  C   UNL     1      24.455   3.352  51.649  1.00  0.00    +0.059 A 
ATOM     22  C   UNL     1      23.070   3.307  51.799  1.00  0.00    +0.030 A 
ATOM     23  C   UNL     1      25.203   2.329  52.242  1.00  0.00    +0.040 A 
ATOM     24  C   UNL     1      22.455   2.244  52.469  1.00  0.00    +0.031 A 
ATOM     25  C   UNL     1      24.583   1.251  52.935  1.00  0.00    +0.029 A 
ATOM     26  C   UNL     1      23.187   1.209  53.033  1.00  0.00    +0.074 A 
ATOM     27  C   UNL     1      25.247   0.174  53.549  1.00  0.00    +0.082 A 
ATOM     28  N   UNL     1      22.528   0.222  53.648  1.00  0.00    -0.236 NA
ATOM     29  N   UNL     1      24.596  -0.842  54.158  1.00  0.00    -0.236 NA
ATOM     30  C   UNL     1      23.263  -0.760  54.178  1.00  0.00    +0.223 A 
BRANCH  27  31
ATOM     31  C   UNL     1      26.712   0.035  53.592  1.00  0.00    +0.002 A 
ATOM     32  C   UNL     1      27.328  -1.142  53.134  1.00  0.00    +0.010 A 
ATOM     33  C   UNL     1      27.525   1.052  54.118  1.00  0.00    +0.030 A 
ATOM     34  C   UNL     1      28.717  -1.294  53.178  1.00  0.00    +0.002 A 
ATOM     35  C   UNL     1      28.912   0.899  54.157  1.00  0.00    +0.041 A 
ATOM     36  C   UNL     1      29.511  -0.268  53.686  1.00  0.00    +0.020 A 
ATOM     37 Cl   UNL     1      29.891   2.161  54.798  1.00  0.00    -0.084 Cl
ENDBRANCH  27  31
ENDBRANCH  19  21
ENDBRANCH   2  19
TORSDOF 8
ENDMDL
MODEL 8
REMARK VINA RESULT:    -7.588      2.398      5.047
REMARK INTER + INTRA:         -14.052
REMARK INTER:                 -11.280
REMARK INTRA:                  -2.772
REMARK UNBOUND:                -2.916
REMARK SMILES CN(CC/N=N/Nc1ccc2ncnc(-c3cccc(Cl)c3)c2c1)c1ccc(-c2ccccn2)[nH]1
REMARK SMILES IDX 5 1 6 2 4 3 3 4 2 5 1 6 25 7 26 8 35 9 27 10 28 11 29 13
REMARK SMILES IDX 30 14 34 15 31 16 33 17 32 18 7 19 8 21 9 22 24 23 10 24
REMARK SMILES IDX 23 25 11 26 15 27 12 28 14 29 13 30 16 31 17 32 22 33 18 34
REMARK SMILES IDX 20 35 19 36 21 37
REMARK H PARENT 35 12 7 20
ROOT
ATOM      1  N   UNL     1      18.653  -0.881  52.457  1.00  0.00    -0.169 NA
ATOM      2  N   UNL     1      19.456  -0.141  53.053  1.00  0.00    -0.075 NA
ENDROOT
BRANCH   1   3
ATOM      3  C   UNL     1      17.351  -0.950  53.148  1.00  0.00    +0.190 C 
BRANCH   3   4
ATOM      4  C   UNL     1      16.237  -0.486  52.200  1.00  0.00    +0.143 C 
BRANCH   4   5
ATOM      5  N   UNL     1      16.046   0.980  52.194  1.00  0.00    -0.359 N 
ATOM      6  C   UNL     1      14.726   1.438  52.641  1.00  0.00    +0.145 C 
BRANCH   5   7
ATOM      7  C   UNL     1      16.701   1.747  51.271  1.00  0.00    +0.106 A 
ATOM      8  C   UNL     1      16.299   2.822  50.509  1.00  0.00    +0.047 A 
ATOM      9  N   UNL     1      18.034   1.550  51.001  1.00  0.00    -0.340 N 
ATOM     10  C   UNL     1      17.404   3.234  49.725  1.00  0.00    +0.032 A 
ATOM     11  C   UNL     1      18.491   2.440  50.053  1.00  0.00    +0.066 A 
ATOM     12  H   UNL     1      18.601   0.860  51.464  1.00  0.00    +0.168 HD
BRANCH  11  13
ATOM     13  C   UNL     1      19.860   2.467  49.541  1.00  0.00    +0.086 A 
ATOM     14  C   UNL     1      20.513   3.638  49.171  1.00  0.00    +0.030 A 
ATOM     15  N   UNL     1      20.442   1.249  49.447  1.00  0.00    -0.255 NA
ATOM     16  C   UNL     1      21.819   3.555  48.693  1.00  0.00    +0.004 A 
ATOM     17  C   UNL     1      21.708   1.199  48.981  1.00  0.00    +0.112 A 
ATOM     18  C   UNL     1      22.431   2.312  48.597  1.00  0.00    +0.020 A 
ENDBRANCH  11  13
ENDBRANCH   5   7
ENDBRANCH   4   5
ENDBRANCH   3   4
ENDBRANCH   1   3
BRANCH   2  19
ATOM     19  N   UNL     1      20.584  -0.162  52.321  1.00  0.00    -0.260 N 
ATOM     20  H   UNL     1      20.495  -0.595  51.409  1.00  0.00    +0.192 HD
BRANCH  19  21
ATOM     21  C   UNL     1      21.817  -0.327  52.972  1.00  0.00    +0.059 A 
ATOM     22  C   UNL     1      21.996  -1.208  54.037  1.00  0.00    +0.030 A 
ATOM     23  C   UNL     1      22.894   0.501  52.631  1.00  0.00    +0.040 A 
ATOM     24  C   UNL     1      23.227  -1.297  54.696  1.00  0.00    +0.031 A 
ATOM     25  C   UNL     1      24.144   0.422  53.306  1.00  0.00    +0.029 A 
ATOM     26  C   UNL     1      24.308  -0.503  54.343  1.00  0.00    +0.074 A 
ATOM     27  C   UNL     1      25.283   1.198  53.026  1.00  0.00    +0.082 A 
ATOM     28  N   UNL     1      25.456  -0.654  55.012  1.00  0.00    -0.236 NA
ATOM     29  N   UNL     1      26.457   1.046  53.679  1.00  0.00    -0.236 NA
ATOM     30  C   UNL     1      26.478   0.125  54.646  1.00  0.00    +0.223 A 
BRANCH  27  31
ATOM     31  C   UNL     1      25.322   2.250  51.997  1.00  0.00    +0.002 A 
ATOM     32  C   UNL     1      26.266   2.192  50.956  1.00  0.00    +0.010 A 
ATOM     33  C   UNL     1      24.448   3.348  52.043  1.00  0.00    +0.030 A 
ATOM     34  C   UNL     1      26.323   3.189  49.978  1.00  0.00    +0.002 A 
ATOM     35  C   UNL     1      24.505   4.339  51.062  1.00  0.00    +0.041 A 
ATOM     36  C   UNL     1      25.436   4.262  50.028  1.00  0.00    +0.020 A 
ATOM     37 Cl   UNL     1      23.419   5.672  51.134  1.00  0.00    -0.084 Cl
ENDBRANCH  27  31
ENDBRANCH  19  21
ENDBRANCH   2  19
TORSDOF 8
ENDMDL
MODEL 9
REMARK VINA RESULT:    -7.542      1.875      6.944
REMARK INTER + INTRA:         -13.986
REMARK INTER:                 -13.010
REMARK INTRA:                  -0.976
REMARK UNBOUND:                -2.916
REMARK SMILES CN(CC/N=N/Nc1ccc2ncnc(-c3cccc(Cl)c3)c2c1)c1ccc(-c2ccccn2)[nH]1
REMARK SMILES IDX 5 1 6 2 4 3 3 4 2 5 1 6 25 7 26 8 35 9 27 10 28 11 29 13
REMARK SMILES IDX 30 14 34 15 31 16 33 17 32 18 7 19 8 21 9 22 24 23 10 24
REMARK SMILES IDX 23 25 11 26 15 27 12 28 14 29 13 30 16 31 17 32 22 33 18 34
REMARK SMILES IDX 20 35 19 36 21 37
REMARK H PARENT 35 12 7 20
ROOT
ATOM      1  N   UNL     1      20.570   3.355  48.129  1.00  0.00    -0.169 NA
ATOM      2  N   UNL     1      20.334   2.353  48.828  1.00  0.00    -0.075 NA
ENDROOT
BRANCH   1   3
ATOM      3  C   UNL     1      22.018   3.578  47.957  1.00  0.00    +0.190 C 
BRANCH   3   4
ATOM      4  C   UNL     1      22.511   4.594  48.997  1.00  0.00    +0.143 C 
BRANCH   4   5
ATOM      5  N   UNL     1      23.072   3.962  50.211  1.00  0.00    -0.359 N 
ATOM      6  C   UNL     1      22.504   4.435  51.478  1.00  0.00    +0.145 C 
BRANCH   5   7
ATOM      7  C   UNL     1      24.373   3.543  50.219  1.00  0.00    +0.106 A 
ATOM      8  C   UNL     1      25.444   3.833  49.402  1.00  0.00    +0.047 A 
ATOM      9  N   UNL     1      24.849   2.720  51.212  1.00  0.00    -0.340 N 
ATOM     10  C   UNL     1      26.565   3.118  49.887  1.00  0.00    +0.032 A 
ATOM     11  C   UNL     1      26.186   2.437  51.031  1.00  0.00    +0.066 A 
ATOM     12  H   UNL     1      24.290   2.396  51.983  1.00  0.00    +0.168 HD
BRANCH  11  13
ATOM     13  C   UNL     1      26.970   1.570  51.910  1.00  0.00    +0.086 A 
ATOM     14  C   UNL     1      26.777   0.196  51.997  1.00  0.00    +0.030 A 
ATOM     15  N   UNL     1      27.900   2.222  52.646  1.00  0.00    -0.255 NA
ATOM     16  C   UNL     1      27.577  -0.540  52.867  1.00  0.00    +0.004 A 
ATOM     17  C   UNL     1      28.662   1.483  53.481  1.00  0.00    +0.112 A 
ATOM     18  C   UNL     1      28.541   0.114  53.624  1.00  0.00    +0.020 A 
ENDBRANCH  11  13
ENDBRANCH   5   7
ENDBRANCH   4   5
ENDBRANCH   3   4
ENDBRANCH   1   3
BRANCH   2  19
ATOM     19  N   UNL     1      18.995   2.262  48.897  1.00  0.00    -0.260 N 
ATOM     20  H   UNL     1      18.500   3.138  48.777  1.00  0.00    +0.192 HD
BRANCH  19  21
ATOM     21  C   UNL     1      18.418   1.335  49.780  1.00  0.00    +0.059 A 
ATOM     22  C   UNL     1      17.060   1.022  49.761  1.00  0.00    +0.030 A 
ATOM     23  C   UNL     1      19.195   0.779  50.802  1.00  0.00    +0.040 A 
ATOM     24  C   UNL     1      16.515   0.137  50.698  1.00  0.00    +0.031 A 
ATOM     25  C   UNL     1      18.643  -0.112  51.765  1.00  0.00    +0.029 A 
ATOM     26  C   UNL     1      17.285  -0.443  51.695  1.00  0.00    +0.074 A 
ATOM     27  C   UNL     1      19.345  -0.730  52.815  1.00  0.00    +0.082 A 
ATOM     28  N   UNL     1      16.695  -1.288  52.547  1.00  0.00    -0.236 NA
ATOM     29  N   UNL     1      18.769  -1.601  53.675  1.00  0.00    -0.236 NA
ATOM     30  C   UNL     1      17.466  -1.830  53.494  1.00  0.00    +0.223 A 
BRANCH  27  31
ATOM     31  C   UNL     1      20.772  -0.500  53.091  1.00  0.00    +0.002 A 
ATOM     32  C   UNL     1      21.546   0.290  52.222  1.00  0.00    +0.010 A 
ATOM     33  C   UNL     1      21.404  -1.083  54.202  1.00  0.00    +0.030 A 
ATOM     34  C   UNL     1      22.905   0.510  52.464  1.00  0.00    +0.002 A 
ATOM     35  C   UNL     1      22.761  -0.858  54.442  1.00  0.00    +0.041 A 
ATOM     36  C   UNL     1      23.512  -0.061  53.580  1.00  0.00    +0.020 A 
ATOM     37 Cl   UNL     1      23.513  -1.576  55.813  1.00  0.00    -0.084 Cl
ENDBRANCH  27  31
ENDBRANCH  19  21
ENDBRANCH   2  19
TORSDOF 8
ENDMDL
