REMARK SMILES Cc1cc(C)c(N(C)c2ccc(-c3cc(O)ccc3[N+](=O)[O-])[nH]2)[nH]1
REMARK SMILES IDX 9 1 10 2 11 3 12 4 23 5 7 7 8 8 6 9 2 10 3 11 24 12 4 13
REMARK SMILES IDX 1 14 5 16 13 17 14 18 19 19 15 20 18 21 17 22 20 23 21 24
REMARK SMILES IDX 22 25 16 26
REMARK H PARENT 23 6 24 15 16 27
ROOT
ATOM      1  C   UNL     1      -0.291  -1.421   0.966  1.00  0.00    +0.111 A 
ATOM      2  C   UNL     1       0.593  -2.162   1.727  1.00  0.00    +0.047 A 
ATOM      3  C   UNL     1       1.907  -1.716   1.435  1.00  0.00    +0.031 A 
ATOM      4  C   UNL     1       1.812  -0.710   0.492  1.00  0.00    +0.054 A 
ATOM      5  N   UNL     1       0.477  -0.598   0.175  1.00  0.00    -0.341 N 
ATOM      6  H   UNL     1       0.092   0.031  -0.517  1.00  0.00    +0.168 HD
ENDROOT
BRANCH   1   7
ATOM      7  N   UNL     1      -1.658  -1.420   0.863  1.00  0.00    -0.317 N 
ATOM      8  C   UNL     1      -2.376  -2.579   1.408  1.00  0.00    +0.153 C 
BRANCH   7   9
ATOM      9  C   UNL     1      -2.406  -0.475   0.212  1.00  0.00    +0.114 A 
ATOM     10  C   UNL     1      -3.030   1.638  -0.283  1.00  0.00    +0.014 A 
ATOM     11  C   UNL     1      -3.848   0.783  -0.988  1.00  0.00    +0.028 A 
ATOM     12  N   UNL     1      -2.170   0.860   0.449  1.00  0.00    -0.345 N 
ATOM     13  C   UNL     1      -3.464  -0.556  -0.681  1.00  0.00    -0.008 A 
ATOM     14  C   UNL     1      -2.976   3.118  -0.226  1.00  0.00    +0.064 C 
ATOM     15  H   UNL     1      -1.460   1.204   1.082  1.00  0.00    +0.168 HD
ATOM     16  C   UNL     1      -4.080  -1.779  -1.258  1.00  0.00    +0.048 C 
ENDBRANCH   7   9
ENDBRANCH   1   7
BRANCH   4  17
ATOM     17  C   UNL     1       2.851   0.094  -0.145  1.00  0.00    +0.079 A 
ATOM     18  C   UNL     1       3.842  -0.567  -0.888  1.00  0.00    +0.063 A 
ATOM     19  C   UNL     1       2.941   1.493  -0.035  1.00  0.00    +0.278 A 
ATOM     20  C   UNL     1       4.869   0.158  -1.495  1.00  0.00    +0.116 A 
ATOM     21  C   UNL     1       3.978   2.222  -0.636  1.00  0.00    +0.090 A 
ATOM     22  C   UNL     1       4.944   1.542  -1.374  1.00  0.00    +0.053 A 
BRANCH  19  23
ATOM     23  N   UNL     1       1.971   2.242   0.741  1.00  0.00    +0.063 N 
ATOM     24  O   UNL     1       0.805   2.275   0.318  1.00  0.00    -0.258 OA
ATOM     25  O   UNL     1       2.389   2.835   1.744  1.00  0.00    -0.258 OA
ENDBRANCH  19  23
BRANCH  20  26
ATOM     26  O   UNL     1       5.838  -0.462  -2.226  1.00  0.00    -0.508 OA
ATOM     27  H   UNL     1       5.669  -1.419  -2.234  1.00  0.00    +0.293 HD
ENDBRANCH  20  26
ENDBRANCH   4  17
TORSDOF 5
