MODEL 1
REMARK VINA RESULT:    -9.199      0.000      0.000
REMARK INTER + INTRA:         -10.873
REMARK INTER:                 -10.274
REMARK INTRA:                  -0.599
REMARK UNBOUND:                -0.599
REMARK SMILES Cc1cccc(C=C2C(=O)N(C)c3ncnc(-c4ccccc4)c32)c1
REMARK SMILES IDX 7 1 8 2 9 3 10 4 11 5 12 6 13 7 14 8 15 9 16 10 17 11 24 12
REMARK SMILES IDX 6 13 2 14 3 15 25 16 4 17 5 18 1 19 18 20 19 21 23 22 20 23
REMARK SMILES IDX 22 24 21 25
REMARK H PARENT
ROOT
ATOM      1  C   UNL     1      25.599   1.139  52.632  1.00  0.00    +0.022 C 
ATOM      2  C   UNL     1      24.440   0.661  53.115  1.00  0.00    +0.054 C 
ATOM      3  C   UNL     1      24.274  -0.462  54.111  1.00  0.00    +0.260 C 
ATOM      4  O   UNL     1      25.144  -1.081  54.692  1.00  0.00    -0.269 OA
ATOM      5  N   UNL     1      22.904  -0.637  54.217  1.00  0.00    -0.295 N 
ATOM      6  C   UNL     1      22.245  -1.610  55.044  1.00  0.00    +0.155 C 
ATOM      7  C   UNL     1      22.203   0.260  53.406  1.00  0.00    +0.147 A 
ATOM      8  N   UNL     1      20.869   0.302  53.319  1.00  0.00    -0.218 NA
ATOM      9  C   UNL     1      20.413   1.243  52.485  1.00  0.00    +0.224 A 
ATOM     10  N   UNL     1      21.162   2.110  51.779  1.00  0.00    -0.236 NA
ATOM     11  C   UNL     1      22.510   2.031  51.918  1.00  0.00    +0.084 A 
ATOM     12  C   UNL     1      23.087   1.083  52.728  1.00  0.00    +0.057 A 
ENDROOT
BRANCH   1  13
ATOM     13  C   UNL     1      26.953   0.713  53.003  1.00  0.00    -0.025 A 
ATOM     14  C   UNL     1      28.653  -1.015  53.253  1.00  0.00    -0.051 A 
ATOM     15  C   UNL     1      29.517  -0.070  53.815  1.00  0.00    +0.003 A 
ATOM     16  C   UNL     1      27.373  -0.614  52.844  1.00  0.00    +0.011 A 
ATOM     17  C   UNL     1      29.100   1.251  53.989  1.00  0.00    +0.001 A 
ATOM     18  C   UNL     1      27.821   1.639  53.591  1.00  0.00    +0.008 A 
ATOM     19  C   UNL     1      29.111  -2.425  53.024  1.00  0.00    +0.044 C 
ENDBRANCH   1  13
BRANCH  11  20
ATOM     20  C   UNL     1      23.253   3.035  51.155  1.00  0.00    +0.001 A 
ATOM     21  C   UNL     1      23.586   4.276  51.725  1.00  0.00    +0.010 A 
ATOM     22  C   UNL     1      23.634   2.786  49.828  1.00  0.00    +0.010 A 
ATOM     23  C   UNL     1      24.305   5.227  50.995  1.00  0.00    +0.001 A 
ATOM     24  C   UNL     1      24.351   3.737  49.098  1.00  0.00    +0.001 A 
ATOM     25  C   UNL     1      24.689   4.955  49.684  1.00  0.00    +0.000 A 
ENDBRANCH  11  20
TORSDOF 2
ENDMDL
MODEL 2
REMARK VINA RESULT:    -9.101      1.869      4.401
REMARK INTER + INTRA:         -10.765
REMARK INTER:                 -10.186
REMARK INTRA:                  -0.579
REMARK UNBOUND:                -0.599
REMARK SMILES Cc1cccc(C=C2C(=O)N(C)c3ncnc(-c4ccccc4)c32)c1
REMARK SMILES IDX 7 1 8 2 9 3 10 4 11 5 12 6 13 7 14 8 15 9 16 10 17 11 24 12
REMARK SMILES IDX 6 13 2 14 3 15 25 16 4 17 5 18 1 19 18 20 19 21 23 22 20 23
REMARK SMILES IDX 22 24 21 25
REMARK H PARENT
ROOT
ATOM      1  C   UNL     1      25.419   0.979  52.822  1.00  0.00    +0.022 C 
ATOM      2  C   UNL     1      25.073   1.868  51.877  1.00  0.00    +0.054 C 
ATOM      3  C   UNL     1      26.012   2.703  51.038  1.00  0.00    +0.260 C 
ATOM      4  O   UNL     1      27.228   2.673  51.023  1.00  0.00    -0.269 OA
ATOM      5  N   UNL     1      25.181   3.517  50.286  1.00  0.00    -0.295 N 
ATOM      6  C   UNL     1      25.612   4.506  49.337  1.00  0.00    +0.155 C 
ATOM      7  C   UNL     1      23.832   3.272  50.559  1.00  0.00    +0.147 A 
ATOM      8  N   UNL     1      22.822   3.924  49.971  1.00  0.00    -0.218 NA
ATOM      9  C   UNL     1      21.614   3.524  50.379  1.00  0.00    +0.224 A 
ATOM     10  N   UNL     1      21.359   2.555  51.279  1.00  0.00    -0.236 NA
ATOM     11  C   UNL     1      22.422   1.918  51.831  1.00  0.00    +0.084 A 
ATOM     12  C   UNL     1      23.710   2.268  51.504  1.00  0.00    +0.057 A 
ENDROOT
BRANCH   1  13
ATOM     13  C   UNL     1      26.779   0.585  53.209  1.00  0.00    -0.025 A 
ATOM     14  C   UNL     1      28.550  -1.079  53.381  1.00  0.00    -0.051 A 
ATOM     15  C   UNL     1      29.347  -0.147  54.054  1.00  0.00    +0.003 A 
ATOM     16  C   UNL     1      27.267  -0.703  52.957  1.00  0.00    +0.011 A 
ATOM     17  C   UNL     1      28.861   1.134  54.320  1.00  0.00    +0.001 A 
ATOM     18  C   UNL     1      27.579   1.496  53.905  1.00  0.00    +0.008 A 
ATOM     19  C   UNL     1      29.083  -2.443  53.055  1.00  0.00    +0.044 C 
ENDBRANCH   1  13
BRANCH  11  20
ATOM     20  C   UNL     1      22.064   0.848  52.764  1.00  0.00    +0.001 A 
ATOM     21  C   UNL     1      22.512  -0.468  52.562  1.00  0.00    +0.010 A 
ATOM     22  C   UNL     1      21.247   1.113  53.875  1.00  0.00    +0.010 A 
ATOM     23  C   UNL     1      22.176  -1.483  53.462  1.00  0.00    +0.001 A 
ATOM     24  C   UNL     1      20.909   0.098  54.772  1.00  0.00    +0.001 A 
ATOM     25  C   UNL     1      21.377  -1.199  54.567  1.00  0.00    +0.000 A 
ENDBRANCH  11  20
TORSDOF 2
ENDMDL
MODEL 3
REMARK VINA RESULT:    -8.884      2.124      6.032
REMARK INTER + INTRA:         -10.522
REMARK INTER:                  -9.432
REMARK INTRA:                  -1.089
REMARK UNBOUND:                -0.599
REMARK SMILES Cc1cccc(C=C2C(=O)N(C)c3ncnc(-c4ccccc4)c32)c1
REMARK SMILES IDX 7 1 8 2 9 3 10 4 11 5 12 6 13 7 14 8 15 9 16 10 17 11 24 12
REMARK SMILES IDX 6 13 2 14 3 15 25 16 4 17 5 18 1 19 18 20 19 21 23 22 20 23
REMARK SMILES IDX 22 24 21 25
REMARK H PARENT
ROOT
ATOM      1  C   UNL     1      22.974   1.513  51.401  1.00  0.00    +0.022 C 
ATOM      2  C   UNL     1      22.202   0.700  52.141  1.00  0.00    +0.054 C 
ATOM      3  C   UNL     1      20.712   0.496  51.997  1.00  0.00    +0.260 C 
ATOM      4  O   UNL     1      19.969   0.973  51.161  1.00  0.00    -0.269 OA
ATOM      5  N   UNL     1      20.373  -0.356  53.036  1.00  0.00    -0.295 N 
ATOM      6  C   UNL     1      19.051  -0.836  53.328  1.00  0.00    +0.155 C 
ATOM      7  C   UNL     1      21.489  -0.711  53.799  1.00  0.00    +0.147 A 
ATOM      8  N   UNL     1      21.439  -1.521  54.863  1.00  0.00    -0.218 NA
ATOM      9  C   UNL     1      22.627  -1.727  55.439  1.00  0.00    +0.224 A 
ATOM     10  N   UNL     1      23.805  -1.215  55.036  1.00  0.00    -0.236 NA
ATOM     11  C   UNL     1      23.798  -0.412  53.942  1.00  0.00    +0.084 A 
ATOM     12  C   UNL     1      22.628  -0.111  53.288  1.00  0.00    +0.057 A 
ENDROOT
BRANCH   1  13
ATOM     13  C   UNL     1      22.553   2.337  50.262  1.00  0.00    -0.025 A 
ATOM     14  C   UNL     1      21.762   4.445  49.331  1.00  0.00    -0.051 A 
ATOM     15  C   UNL     1      21.663   3.841  48.073  1.00  0.00    +0.003 A 
ATOM     16  C   UNL     1      22.213   3.686  50.420  1.00  0.00    +0.011 A 
ATOM     17  C   UNL     1      21.986   2.493  47.911  1.00  0.00    +0.001 A 
ATOM     18  C   UNL     1      22.423   1.742  49.003  1.00  0.00    +0.008 A 
ATOM     19  C   UNL     1      21.457   5.904  49.501  1.00  0.00    +0.044 C 
ENDBRANCH   1  13
BRANCH  11  20
ATOM     20  C   UNL     1      25.122   0.067  53.540  1.00  0.00    +0.001 A 
ATOM     21  C   UNL     1      25.993  -0.750  52.800  1.00  0.00    +0.010 A 
ATOM     22  C   UNL     1      25.557   1.352  53.902  1.00  0.00    +0.010 A 
ATOM     23  C   UNL     1      27.251  -0.283  52.410  1.00  0.00    +0.001 A 
ATOM     24  C   UNL     1      26.815   1.817  53.513  1.00  0.00    +0.001 A 
ATOM     25  C   UNL     1      27.659   1.000  52.764  1.00  0.00    +0.000 A 
ENDBRANCH  11  20
TORSDOF 2
ENDMDL
MODEL 4
REMARK VINA RESULT:    -8.711      1.780      5.570
REMARK INTER + INTRA:         -10.329
REMARK INTER:                  -9.636
REMARK INTRA:                  -0.692
REMARK UNBOUND:                -0.599
REMARK SMILES Cc1cccc(C=C2C(=O)N(C)c3ncnc(-c4ccccc4)c32)c1
REMARK SMILES IDX 7 1 8 2 9 3 10 4 11 5 12 6 13 7 14 8 15 9 16 10 17 11 24 12
REMARK SMILES IDX 6 13 2 14 3 15 25 16 4 17 5 18 1 19 18 20 19 21 23 22 20 23
REMARK SMILES IDX 22 24 21 25
REMARK H PARENT
ROOT
ATOM      1  C   UNL     1      24.705   2.328  51.977  1.00  0.00    +0.022 C 
ATOM      2  C   UNL     1      23.518   1.781  52.282  1.00  0.00    +0.054 C 
ATOM      3  C   UNL     1      22.159   2.273  51.843  1.00  0.00    +0.260 C 
ATOM      4  O   UNL     1      21.904   3.199  51.096  1.00  0.00    -0.269 OA
ATOM      5  N   UNL     1      21.259   1.438  52.484  1.00  0.00    -0.295 N 
ATOM      6  C   UNL     1      19.828   1.518  52.390  1.00  0.00    +0.155 C 
ATOM      7  C   UNL     1      21.910   0.476  53.262  1.00  0.00    +0.147 A 
ATOM      8  N   UNL     1      21.275  -0.452  53.987  1.00  0.00    -0.218 NA
ATOM      9  C   UNL     1      22.096  -1.273  54.649  1.00  0.00    +0.224 A 
ATOM     10  N   UNL     1      23.442  -1.239  54.627  1.00  0.00    -0.236 NA
ATOM     11  C   UNL     1      24.032  -0.286  53.863  1.00  0.00    +0.084 A 
ATOM     12  C   UNL     1      23.283   0.628  53.161  1.00  0.00    +0.057 A 
ENDROOT
BRANCH   1  13
ATOM     13  C   UNL     1      24.947   3.488  51.110  1.00  0.00    -0.025 A 
ATOM     14  C   UNL     1      24.632   5.840  50.557  1.00  0.00    -0.051 A 
ATOM     15  C   UNL     1      25.357   5.649  49.376  1.00  0.00    +0.003 A 
ATOM     16  C   UNL     1      24.436   4.754  51.422  1.00  0.00    +0.011 A 
ATOM     17  C   UNL     1      25.857   4.387  49.052  1.00  0.00    +0.001 A 
ATOM     18  C   UNL     1      25.647   3.309  49.913  1.00  0.00    +0.008 A 
ATOM     19  C   UNL     1      24.129   7.203  50.930  1.00  0.00    +0.044 C 
ENDBRANCH   1  13
BRANCH  11  20
ATOM     20  C   UNL     1      25.495  -0.342  53.854  1.00  0.00    +0.001 A 
ATOM     21  C   UNL     1      26.249   0.286  54.859  1.00  0.00    +0.010 A 
ATOM     22  C   UNL     1      26.177  -1.014  52.828  1.00  0.00    +0.010 A 
ATOM     23  C   UNL     1      27.645   0.220  54.851  1.00  0.00    +0.001 A 
ATOM     24  C   UNL     1      27.572  -1.078  52.819  1.00  0.00    +0.001 A 
ATOM     25  C   UNL     1      28.304  -0.464  53.833  1.00  0.00    +0.000 A 
ENDBRANCH  11  20
TORSDOF 2
ENDMDL
MODEL 5
REMARK VINA RESULT:    -8.411      1.757      2.453
REMARK INTER + INTRA:          -9.993
REMARK INTER:                  -8.977
REMARK INTRA:                  -1.016
REMARK UNBOUND:                -0.599
REMARK SMILES Cc1cccc(C=C2C(=O)N(C)c3ncnc(-c4ccccc4)c32)c1
REMARK SMILES IDX 7 1 8 2 9 3 10 4 11 5 12 6 13 7 14 8 15 9 16 10 17 11 24 12
REMARK SMILES IDX 6 13 2 14 3 15 25 16 4 17 5 18 1 19 18 20 19 21 23 22 20 23
REMARK SMILES IDX 22 24 21 25
REMARK H PARENT
ROOT
ATOM      1  C   UNL     1      23.715   1.204  51.821  1.00  0.00    +0.022 C 
ATOM      2  C   UNL     1      22.574   0.639  52.248  1.00  0.00    +0.054 C 
ATOM      3  C   UNL     1      22.409  -0.266  53.446  1.00  0.00    +0.260 C 
ATOM      4  O   UNL     1      23.252  -0.588  54.261  1.00  0.00    -0.269 OA
ATOM      5  N   UNL     1      21.080  -0.655  53.411  1.00  0.00    -0.295 N 
ATOM      6  C   UNL     1      20.441  -1.538  54.347  1.00  0.00    +0.155 C 
ATOM      7  C   UNL     1      20.401  -0.083  52.331  1.00  0.00    +0.147 A 
ATOM      8  N   UNL     1      19.107  -0.297  52.065  1.00  0.00    -0.218 NA
ATOM      9  C   UNL     1      18.665   0.356  50.986  1.00  0.00    +0.224 A 
ATOM     10  N   UNL     1      19.388   1.177  50.202  1.00  0.00    -0.236 NA
ATOM     11  C   UNL     1      20.691   1.369  50.529  1.00  0.00    +0.084 A 
ATOM     12  C   UNL     1      21.257   0.725  51.603  1.00  0.00    +0.057 A 
ENDROOT
BRANCH   1  13
ATOM     13  C   UNL     1      25.037   1.110  52.453  1.00  0.00    -0.025 A 
ATOM     14  C   UNL     1      27.049  -0.144  53.013  1.00  0.00    -0.051 A 
ATOM     15  C   UNL     1      27.511   0.948  53.755  1.00  0.00    +0.003 A 
ATOM     16  C   UNL     1      25.812  -0.053  52.360  1.00  0.00    +0.011 A 
ATOM     17  C   UNL     1      26.738   2.105  53.863  1.00  0.00    +0.001 A 
ATOM     18  C   UNL     1      25.502   2.183  53.220  1.00  0.00    +0.008 A 
ATOM     19  C   UNL     1      27.896  -1.373  52.859  1.00  0.00    +0.044 C 
ENDBRANCH   1  13
BRANCH  11  20
ATOM     20  C   UNL     1      21.397   2.310  49.657  1.00  0.00    +0.001 A 
ATOM     21  C   UNL     1      21.947   1.890  48.434  1.00  0.00    +0.010 A 
ATOM     22  C   UNL     1      21.556   3.652  50.035  1.00  0.00    +0.010 A 
ATOM     23  C   UNL     1      22.611   2.795  47.602  1.00  0.00    +0.001 A 
ATOM     24  C   UNL     1      22.221   4.555  49.204  1.00  0.00    +0.001 A 
ATOM     25  C   UNL     1      22.745   4.127  47.986  1.00  0.00    +0.000 A 
ENDBRANCH  11  20
TORSDOF 2
ENDMDL
MODEL 6
REMARK VINA RESULT:    -7.974      2.724      4.815
REMARK INTER + INTRA:          -9.505
REMARK INTER:                  -8.694
REMARK INTRA:                  -0.812
REMARK UNBOUND:                -0.599
REMARK SMILES Cc1cccc(C=C2C(=O)N(C)c3ncnc(-c4ccccc4)c32)c1
REMARK SMILES IDX 7 1 8 2 9 3 10 4 11 5 12 6 13 7 14 8 15 9 16 10 17 11 24 12
REMARK SMILES IDX 6 13 2 14 3 15 25 16 4 17 5 18 1 19 18 20 19 21 23 22 20 23
REMARK SMILES IDX 22 24 21 25
REMARK H PARENT
ROOT
ATOM      1  C   UNL     1      24.609   1.494  51.969  1.00  0.00    +0.022 C 
ATOM      2  C   UNL     1      24.802   2.470  51.068  1.00  0.00    +0.054 C 
ATOM      3  C   UNL     1      26.131   3.020  50.605  1.00  0.00    +0.260 C 
ATOM      4  O   UNL     1      27.245   2.640  50.912  1.00  0.00    -0.269 OA
ATOM      5  N   UNL     1      25.803   4.060  49.752  1.00  0.00    -0.295 N 
ATOM      6  C   UNL     1      26.738   4.907  49.065  1.00  0.00    +0.155 C 
ATOM      7  C   UNL     1      24.418   4.209  49.626  1.00  0.00    +0.147 A 
ATOM      8  N   UNL     1      23.834   5.142  48.865  1.00  0.00    -0.218 NA
ATOM      9  C   UNL     1      22.498   5.098  48.890  1.00  0.00    +0.224 A 
ATOM     10  N   UNL     1      21.745   4.220  49.580  1.00  0.00    -0.236 NA
ATOM     11  C   UNL     1      22.392   3.287  50.323  1.00  0.00    +0.084 A 
ATOM     12  C   UNL     1      23.764   3.258  50.391  1.00  0.00    +0.057 A 
ENDROOT
BRANCH   1  13
ATOM     13  C   UNL     1      25.642   0.712  52.660  1.00  0.00    -0.025 A 
ATOM     14  C   UNL     1      26.896   0.139  54.669  1.00  0.00    -0.051 A 
ATOM     15  C   UNL     1      27.688  -0.733  53.914  1.00  0.00    +0.003 A 
ATOM     16  C   UNL     1      25.871   0.855  54.035  1.00  0.00    +0.011 A 
ATOM     17  C   UNL     1      27.474  -0.869  52.541  1.00  0.00    +0.001 A 
ATOM     18  C   UNL     1      26.459  -0.144  51.916  1.00  0.00    +0.008 A 
ATOM     19  C   UNL     1      27.094   0.257  56.151  1.00  0.00    +0.044 C 
ENDBRANCH   1  13
BRANCH  11  20
ATOM     20  C   UNL     1      21.506   2.342  51.006  1.00  0.00    +0.001 A 
ATOM     21  C   UNL     1      21.065   1.173  50.364  1.00  0.00    +0.010 A 
ATOM     22  C   UNL     1      21.064   2.595  52.313  1.00  0.00    +0.010 A 
ATOM     23  C   UNL     1      20.228   0.269  51.024  1.00  0.00    +0.001 A 
ATOM     24  C   UNL     1      20.226   1.693  52.972  1.00  0.00    +0.001 A 
ATOM     25  C   UNL     1      19.812   0.528  52.328  1.00  0.00    +0.000 A 
ENDBRANCH  11  20
TORSDOF 2
ENDMDL
MODEL 7
REMARK VINA RESULT:    -7.745      3.022      7.011
REMARK INTER + INTRA:          -9.250
REMARK INTER:                  -8.184
REMARK INTRA:                  -1.065
REMARK UNBOUND:                -0.599
REMARK SMILES Cc1cccc(C=C2C(=O)N(C)c3ncnc(-c4ccccc4)c32)c1
REMARK SMILES IDX 7 1 8 2 9 3 10 4 11 5 12 6 13 7 14 8 15 9 16 10 17 11 24 12
REMARK SMILES IDX 6 13 2 14 3 15 25 16 4 17 5 18 1 19 18 20 19 21 23 22 20 23
REMARK SMILES IDX 22 24 21 25
REMARK H PARENT
ROOT
ATOM      1  C   UNL     1      19.706   1.224  51.012  1.00  0.00    +0.022 C 
ATOM      2  C   UNL     1      20.558   0.601  51.842  1.00  0.00    +0.054 C 
ATOM      3  C   UNL     1      20.197  -0.376  52.937  1.00  0.00    +0.260 C 
ATOM      4  O   UNL     1      19.097  -0.814  53.216  1.00  0.00    -0.269 OA
ATOM      5  N   UNL     1      21.400  -0.664  53.560  1.00  0.00    -0.295 N 
ATOM      6  C   UNL     1      21.572  -1.544  54.682  1.00  0.00    +0.155 C 
ATOM      7  C   UNL     1      22.467   0.017  52.967  1.00  0.00    +0.147 A 
ATOM      8  N   UNL     1      23.736  -0.081  53.378  1.00  0.00    -0.218 NA
ATOM      9  C   UNL     1      24.592   0.655  52.662  1.00  0.00    +0.224 A 
ATOM     10  N   UNL     1      24.283   1.431  51.607  1.00  0.00    -0.236 NA
ATOM     11  C   UNL     1      22.982   1.481  51.225  1.00  0.00    +0.084 A 
ATOM     12  C   UNL     1      22.013   0.786  51.908  1.00  0.00    +0.057 A 
ENDROOT
BRANCH   1  13
ATOM     13  C   UNL     1      18.249   1.055  50.950  1.00  0.00    -0.025 A 
ATOM     14  C   UNL     1      16.267  -0.075  50.095  1.00  0.00    -0.051 A 
ATOM     15  C   UNL     1      15.461   0.833  50.790  1.00  0.00    +0.003 A 
ATOM     16  C   UNL     1      17.662   0.040  50.185  1.00  0.00    +0.011 A 
ATOM     17  C   UNL     1      16.040   1.856  51.543  1.00  0.00    +0.001 A 
ATOM     18  C   UNL     1      17.429   1.970  51.617  1.00  0.00    +0.008 A 
ATOM     19  C   UNL     1      15.651  -1.201  49.319  1.00  0.00    +0.044 C 
ENDBRANCH   1  13
BRANCH  11  20
ATOM     20  C   UNL     1      22.733   2.309  50.044  1.00  0.00    +0.001 A 
ATOM     21  C   UNL     1      22.843   3.709  50.106  1.00  0.00    +0.010 A 
ATOM     22  C   UNL     1      22.360   1.722  48.825  1.00  0.00    +0.010 A 
ATOM     23  C   UNL     1      22.614   4.494  48.972  1.00  0.00    +0.001 A 
ATOM     24  C   UNL     1      22.130   2.507  47.693  1.00  0.00    +0.001 A 
ATOM     25  C   UNL     1      22.261   3.892  47.767  1.00  0.00    +0.000 A 
ENDBRANCH  11  20
TORSDOF 2
ENDMDL
MODEL 8
REMARK VINA RESULT:    -7.428      3.334      7.546
REMARK INTER + INTRA:          -8.896
REMARK INTER:                  -8.318
REMARK INTRA:                  -0.578
REMARK UNBOUND:                -0.599
REMARK SMILES Cc1cccc(C=C2C(=O)N(C)c3ncnc(-c4ccccc4)c32)c1
REMARK SMILES IDX 7 1 8 2 9 3 10 4 11 5 12 6 13 7 14 8 15 9 16 10 17 11 24 12
REMARK SMILES IDX 6 13 2 14 3 15 25 16 4 17 5 18 1 19 18 20 19 21 23 22 20 23
REMARK SMILES IDX 22 24 21 25
REMARK H PARENT
ROOT
ATOM      1  C   UNL     1      22.356   2.376  50.366  1.00  0.00    +0.022 C 
ATOM      2  C   UNL     1      23.671   2.642  50.437  1.00  0.00    +0.054 C 
ATOM      3  C   UNL     1      24.447   3.590  49.554  1.00  0.00    +0.260 C 
ATOM      4  O   UNL     1      24.018   4.318  48.678  1.00  0.00    -0.269 OA
ATOM      5  N   UNL     1      25.764   3.448  49.958  1.00  0.00    -0.295 N 
ATOM      6  C   UNL     1      26.892   4.141  49.400  1.00  0.00    +0.155 C 
ATOM      7  C   UNL     1      25.889   2.524  51.001  1.00  0.00    +0.147 A 
ATOM      8  N   UNL     1      27.052   2.199  51.574  1.00  0.00    -0.218 NA
ATOM      9  C   UNL     1      26.935   1.298  52.555  1.00  0.00    +0.224 A 
ATOM     10  N   UNL     1      25.790   0.740  52.989  1.00  0.00    -0.236 NA
ATOM     11  C   UNL     1      24.638   1.119  52.381  1.00  0.00    +0.084 A 
ATOM     12  C   UNL     1      24.645   2.019  51.342  1.00  0.00    +0.057 A 
ENDROOT
BRANCH   1  13
ATOM     13  C   UNL     1      21.379   2.984  49.455  1.00  0.00    -0.025 A 
ATOM     14  C   UNL     1      19.733   4.702  48.930  1.00  0.00    -0.051 A 
ATOM     15  C   UNL     1      19.455   4.053  47.723  1.00  0.00    +0.003 A 
ATOM     16  C   UNL     1      20.702   4.163  49.790  1.00  0.00    +0.011 A 
ATOM     17  C   UNL     1      20.116   2.870  47.390  1.00  0.00    +0.001 A 
ATOM     18  C   UNL     1      21.070   2.334  48.256  1.00  0.00    +0.008 A 
ATOM     19  C   UNL     1      19.056   5.996  49.273  1.00  0.00    +0.044 C 
ENDBRANCH   1  13
BRANCH  11  20
ATOM     20  C   UNL     1      23.432   0.504  52.938  1.00  0.00    +0.001 A 
ATOM     21  C   UNL     1      23.373  -0.878  53.183  1.00  0.00    +0.010 A 
ATOM     22  C   UNL     1      22.300   1.283  53.224  1.00  0.00    +0.010 A 
ATOM     23  C   UNL     1      22.223  -1.458  53.726  1.00  0.00    +0.001 A 
ATOM     24  C   UNL     1      21.150   0.702  53.764  1.00  0.00    +0.001 A 
ATOM     25  C   UNL     1      21.115  -0.668  54.018  1.00  0.00    +0.000 A 
ENDBRANCH  11  20
TORSDOF 2
ENDMDL
MODEL 9
REMARK VINA RESULT:    -7.119      2.963      7.098
REMARK INTER + INTRA:          -8.550
REMARK INTER:                  -7.578
REMARK INTRA:                  -0.972
REMARK UNBOUND:                -0.599
REMARK SMILES Cc1cccc(C=C2C(=O)N(C)c3ncnc(-c4ccccc4)c32)c1
REMARK SMILES IDX 7 1 8 2 9 3 10 4 11 5 12 6 13 7 14 8 15 9 16 10 17 11 24 12
REMARK SMILES IDX 6 13 2 14 3 15 25 16 4 17 5 18 1 19 18 20 19 21 23 22 20 23
REMARK SMILES IDX 22 24 21 25
REMARK H PARENT
ROOT
ATOM      1  C   UNL     1      22.007   3.031  49.270  1.00  0.00    +0.022 C 
ATOM      2  C   UNL     1      23.015   2.693  50.089  1.00  0.00    +0.054 C 
ATOM      3  C   UNL     1      24.478   3.021  49.900  1.00  0.00    +0.260 C 
ATOM      4  O   UNL     1      24.987   3.692  49.023  1.00  0.00    -0.269 OA
ATOM      5  N   UNL     1      25.119   2.383  50.950  1.00  0.00    -0.295 N 
ATOM      6  C   UNL     1      26.534   2.389  51.195  1.00  0.00    +0.155 C 
ATOM      7  C   UNL     1      24.214   1.706  51.774  1.00  0.00    +0.147 A 
ATOM      8  N   UNL     1      24.571   1.006  52.857  1.00  0.00    -0.218 NA
ATOM      9  C   UNL     1      23.541   0.445  53.498  1.00  0.00    +0.224 A 
ATOM     10  N   UNL     1      22.243   0.543  53.156  1.00  0.00    -0.236 NA
ATOM     11  C   UNL     1      21.939   1.278  52.056  1.00  0.00    +0.084 A 
ATOM     12  C   UNL     1      22.922   1.876  51.306  1.00  0.00    +0.057 A 
ENDROOT
BRANCH   1  13
ATOM     13  C   UNL     1      22.094   3.835  48.044  1.00  0.00    -0.025 A 
ATOM     14  C   UNL     1      22.285   5.984  46.912  1.00  0.00    -0.051 A 
ATOM     15  C   UNL     1      22.161   5.334  45.679  1.00  0.00    +0.003 A 
ATOM     16  C   UNL     1      22.256   5.225  48.091  1.00  0.00    +0.011 A 
ATOM     17  C   UNL     1      21.985   3.951  45.627  1.00  0.00    +0.001 A 
ATOM     18  C   UNL     1      21.946   3.205  46.805  1.00  0.00    +0.008 A 
ATOM     19  C   UNL     1      22.517   7.464  46.973  1.00  0.00    +0.044 C 
ENDBRANCH   1  13
BRANCH  11  20
ATOM     20  C   UNL     1      20.505   1.375  51.776  1.00  0.00    +0.001 A 
ATOM     21  C   UNL     1      19.803   2.571  52.001  1.00  0.00    +0.010 A 
ATOM     22  C   UNL     1      19.796   0.265  51.290  1.00  0.00    +0.010 A 
ATOM     23  C   UNL     1      18.437   2.660  51.721  1.00  0.00    +0.001 A 
ATOM     24  C   UNL     1      18.430   0.354  51.013  1.00  0.00    +0.001 A 
ATOM     25  C   UNL     1      17.753   1.553  51.225  1.00  0.00    +0.000 A 
ENDBRANCH  11  20
TORSDOF 2
ENDMDL
