REMARK SMILES CN(CC/N=N/Nc1ccc2ncnc(-c3cccc(Cl)c3)c2c1)c1ccc(O)c(O)c1
REMARK SMILES IDX 4 1 3 2 2 3 1 4 25 5 26 6 32 7 27 8 30 9 28 10 31 11 29 13
REMARK SMILES IDX 5 15 6 16 7 17 8 19 9 20 24 21 10 22 23 23 11 24 15 25 12 26
REMARK SMILES IDX 14 27 13 28 16 29 17 30 22 31 18 32 20 33 19 34 21 35
REMARK H PARENT 31 12 29 14 7 18
ROOT
ATOM      1  C   UNL     1      -2.152   1.584   2.553  1.00  0.00    +0.190 C 
ENDROOT
BRANCH   1   2
ATOM      2  C   UNL     1      -3.293   2.324   1.841  1.00  0.00    +0.142 C 
BRANCH   2   3
ATOM      3  N   UNL     1      -3.867   1.570   0.708  1.00  0.00    -0.373 N 
ATOM      4  C   UNL     1      -3.198   1.755  -0.581  1.00  0.00    +0.143 C 
BRANCH   3   5
ATOM      5  C   UNL     1      -4.643   0.429   0.929  1.00  0.00    +0.040 A 
ATOM      6  C   UNL     1      -4.864  -0.532  -0.082  1.00  0.00    +0.030 A 
ATOM      7  C   UNL     1      -5.275   0.181   2.162  1.00  0.00    +0.076 A 
ATOM      8  C   UNL     1      -5.641  -1.684   0.122  1.00  0.00    +0.052 A 
ATOM      9  C   UNL     1      -6.047  -0.960   2.367  1.00  0.00    +0.159 A 
ATOM     10  C   UNL     1      -6.229  -1.891   1.356  1.00  0.00    +0.157 A 
BRANCH   9  11
ATOM     11  O   UNL     1      -6.630  -1.159   3.588  1.00  0.00    -0.504 OA
ATOM     12  H   UNL     1      -7.115  -2.002   3.491  1.00  0.00    +0.293 HD
ENDBRANCH   9  11
BRANCH  10  13
ATOM     13  O   UNL     1      -6.995  -2.990   1.624  1.00  0.00    -0.504 OA
ATOM     14  H   UNL     1      -7.013  -3.543   0.824  1.00  0.00    +0.293 HD
ENDBRANCH  10  13
ENDBRANCH   3   5
ENDBRANCH   2   3
ENDBRANCH   1   2
BRANCH   1  15
ATOM     15  N   UNL     1      -0.914   1.663   1.755  1.00  0.00    -0.169 NA
ATOM     16  N   UNL     1      -0.605   0.564   1.260  1.00  0.00    -0.075 NA
BRANCH  16  17
ATOM     17  N   UNL     1       0.517   0.784   0.551  1.00  0.00    -0.260 N 
ATOM     18  H   UNL     1       1.043   1.604   0.833  1.00  0.00    +0.192 HD
BRANCH  17  19
ATOM     19  C   UNL     1       1.270  -0.317   0.112  1.00  0.00    +0.059 A 
ATOM     20  C   UNL     1       0.742  -1.606   0.034  1.00  0.00    +0.030 A 
ATOM     21  C   UNL     1       2.561  -0.116  -0.388  1.00  0.00    +0.040 A 
ATOM     22  C   UNL     1       1.501  -2.661  -0.487  1.00  0.00    +0.031 A 
ATOM     23  C   UNL     1       3.340  -1.187  -0.906  1.00  0.00    +0.029 A 
ATOM     24  C   UNL     1       2.791  -2.474  -0.960  1.00  0.00    +0.074 A 
ATOM     25  C   UNL     1       4.650  -1.083  -1.408  1.00  0.00    +0.082 A 
ATOM     26  N   UNL     1       3.450  -3.526  -1.457  1.00  0.00    -0.236 NA
ATOM     27  N   UNL     1       5.325  -2.132  -1.929  1.00  0.00    -0.236 NA
ATOM     28  C   UNL     1       4.685  -3.304  -1.923  1.00  0.00    +0.223 A 
BRANCH  25  29
ATOM     29  C   UNL     1       5.421   0.169  -1.413  1.00  0.00    +0.002 A 
ATOM     30  C   UNL     1       5.853   0.763  -0.214  1.00  0.00    +0.010 A 
ATOM     31  C   UNL     1       5.767   0.787  -2.627  1.00  0.00    +0.030 A 
ATOM     32  C   UNL     1       6.590   1.951  -0.224  1.00  0.00    +0.002 A 
ATOM     33  C   UNL     1       6.502   1.972  -2.633  1.00  0.00    +0.041 A 
ATOM     34  C   UNL     1       6.912   2.558  -1.437  1.00  0.00    +0.020 A 
ATOM     35 Cl   UNL     1       6.906   2.718  -4.129  1.00  0.00    -0.084 Cl
ENDBRANCH  25  29
ENDBRANCH  17  19
ENDBRANCH  16  17
ENDBRANCH   1  15
TORSDOF 9
