REMARK SMILES O=C(O)c1cc(O)c(O)c(N2CCOCC2)c1
REMARK SMILES IDX 4 1 5 2 6 3 8 4 10 5 17 6 2 7 1 8 3 9 7 11 11 13 12 14 16 15
REMARK SMILES IDX 13 16 15 17 14 18 9 19
REMARK H PARENT 3 10 7 12 9 20
ROOT
ATOM      1  C   UNL     1      -2.328   0.704   0.429  1.00  0.00    +0.065 A 
ATOM      2  C   UNL     1      -2.936  -0.458   0.922  1.00  0.00    +0.066 A 
ATOM      3  C   UNL     1      -2.226  -1.647   0.910  1.00  0.00    +0.160 A 
ATOM      4  C   UNL     1      -0.928  -1.683   0.416  1.00  0.00    +0.181 A 
ATOM      5  C   UNL     1      -0.291  -0.537  -0.081  1.00  0.00    +0.084 A 
ATOM      6  C   UNL     1      -1.010   0.663  -0.068  1.00  0.00    +0.045 A 
ENDROOT
BRANCH   1   7
ATOM      7  C   UNL     1      -3.110   1.963   0.455  1.00  0.00    +0.335 C 
ATOM      8  O   UNL     1      -4.242   2.095   0.879  1.00  0.00    -0.246 OA
BRANCH   7   9
ATOM      9  O   UNL     1      -2.434   3.008  -0.057  1.00  0.00    -0.478 OA
ATOM     10  H   UNL     1      -3.067   3.752   0.027  1.00  0.00    +0.297 HD
ENDBRANCH   7   9
ENDBRANCH   1   7
BRANCH   3  11
ATOM     11  O   UNL     1      -2.810  -2.786   1.381  1.00  0.00    -0.504 OA
ATOM     12  H   UNL     1      -2.131  -3.481   1.261  1.00  0.00    +0.293 HD
ENDBRANCH   3  11
BRANCH   5  13
ATOM     13  N   UNL     1       1.042  -0.664  -0.531  1.00  0.00    -0.364 N 
ATOM     14  C   UNL     1       2.003  -0.313   0.551  1.00  0.00    +0.145 C 
ATOM     15  C   UNL     1       1.352   0.001  -1.825  1.00  0.00    +0.145 C 
ATOM     16  C   UNL     1       3.409  -0.135  -0.040  1.00  0.00    +0.181 C 
ATOM     17  C   UNL     1       2.249   1.235  -1.636  1.00  0.00    +0.181 C 
ATOM     18  O   UNL     1       3.496   0.942  -0.987  1.00  0.00    -0.378 OA
ENDBRANCH   5  13
BRANCH   4  19
ATOM     19  O   UNL     1      -0.259  -2.882   0.394  1.00  0.00    -0.503 OA
ATOM     20  H   UNL     1       0.570  -2.653  -0.079  1.00  0.00    +0.293 HD
ENDBRANCH   4  19
TORSDOF 5
