MODEL 1
REMARK VINA RESULT:    -7.337      0.000      0.000
REMARK INTER + INTRA:         -10.423
REMARK INTER:                  -9.267
REMARK INTRA:                  -1.156
REMARK UNBOUND:                -1.156
REMARK SMILES Cc1cc(C)c(N(C(=O)c2ccccn2)c2ccc(O)cc2)[nH]1
REMARK SMILES IDX 16 1 17 2 18 3 19 4 21 5 22 6 7 7 6 8 2 9 3 10 23 11 4 12
REMARK SMILES IDX 1 13 5 15 8 16 9 17 10 18 11 19 15 20 12 21 14 22 13 23
REMARK SMILES IDX 20 24
REMARK H PARENT 23 14 20 25
ROOT
ATOM      1  C   UNL     1      25.978  -0.046  53.181  1.00  0.00    +0.051 A 
ATOM      2  C   UNL     1      25.914  -1.235  52.435  1.00  0.00    +0.030 A 
ATOM      3  C   UNL     1      26.981  -2.135  52.433  1.00  0.00    +0.048 A 
ATOM      4  C   UNL     1      28.119  -1.854  53.178  1.00  0.00    +0.115 A 
ATOM      5  C   UNL     1      28.208  -0.687  53.927  1.00  0.00    +0.048 A 
ATOM      6  C   UNL     1      27.138   0.214  53.929  1.00  0.00    +0.030 A 
ENDROOT
BRANCH   1   7
ATOM      7  N   UNL     1      24.877   0.872  53.191  1.00  0.00    -0.261 N 
BRANCH   7   8
ATOM      8  C   UNL     1      23.575   0.337  53.127  1.00  0.00    +0.120 A 
ATOM      9  C   UNL     1      21.495   0.046  52.268  1.00  0.00    +0.014 A 
ATOM     10  C   UNL     1      21.580  -0.706  53.417  1.00  0.00    +0.028 A 
ATOM     11  N   UNL     1      22.704   0.671  52.108  1.00  0.00    -0.345 N 
ATOM     12  C   UNL     1      22.885  -0.531  53.969  1.00  0.00    -0.008 A 
ATOM     13  C   UNL     1      20.380   0.243  51.312  1.00  0.00    +0.064 C 
ATOM     14  H   UNL     1      22.916   1.330  51.373  1.00  0.00    +0.168 HD
ATOM     15  C   UNL     1      23.362  -1.219  55.201  1.00  0.00    +0.048 C 
ENDBRANCH   7   8
BRANCH   7  16
ATOM     16  C   UNL     1      25.047   2.266  53.065  1.00  0.00    +0.282 C 
ATOM     17  O   UNL     1      25.140   3.069  53.994  1.00  0.00    -0.266 OA
BRANCH  16  18
ATOM     18  C   UNL     1      25.194   2.804  51.675  1.00  0.00    +0.129 A 
ATOM     19  C   UNL     1      26.431   2.741  51.038  1.00  0.00    +0.034 A 
ATOM     20  N   UNL     1      24.084   3.354  51.117  1.00  0.00    -0.251 NA
ATOM     21  C   UNL     1      26.532   3.262  49.752  1.00  0.00    +0.004 A 
ATOM     22  C   UNL     1      24.223   3.858  49.873  1.00  0.00    +0.112 A 
ATOM     23  C   UNL     1      25.411   3.831  49.157  1.00  0.00    +0.020 A 
ENDBRANCH  16  18
ENDBRANCH   7  16
ENDBRANCH   1   7
BRANCH   4  24
ATOM     24  O   UNL     1      29.136  -2.759  53.148  1.00  0.00    -0.508 OA
ATOM     25  H   UNL     1      28.829  -3.560  52.689  1.00  0.00    +0.293 HD
ENDBRANCH   4  24
TORSDOF 5
ENDMDL
MODEL 2
REMARK VINA RESULT:    -7.184      3.010      5.996
REMARK INTER + INTRA:         -10.230
REMARK INTER:                  -9.145
REMARK INTRA:                  -1.085
REMARK UNBOUND:                -1.156
REMARK SMILES Cc1cc(C)c(N(C(=O)c2ccccn2)c2ccc(O)cc2)[nH]1
REMARK SMILES IDX 16 1 17 2 18 3 19 4 21 5 22 6 7 7 6 8 2 9 3 10 23 11 4 12
REMARK SMILES IDX 1 13 5 15 8 16 9 17 10 18 11 19 15 20 12 21 14 22 13 23
REMARK SMILES IDX 20 24
REMARK H PARENT 23 14 20 25
ROOT
ATOM      1  C   UNL     1      21.798   0.737  52.954  1.00  0.00    +0.051 A 
ATOM      2  C   UNL     1      21.016   0.397  54.071  1.00  0.00    +0.030 A 
ATOM      3  C   UNL     1      21.490  -0.504  55.027  1.00  0.00    +0.048 A 
ATOM      4  C   UNL     1      22.749  -1.070  54.873  1.00  0.00    +0.115 A 
ATOM      5  C   UNL     1      23.544  -0.750  53.779  1.00  0.00    +0.048 A 
ATOM      6  C   UNL     1      23.068   0.153  52.823  1.00  0.00    +0.030 A 
ENDROOT
BRANCH   1   7
ATOM      7  N   UNL     1      21.314   1.671  51.980  1.00  0.00    -0.261 N 
BRANCH   7   8
ATOM      8  C   UNL     1      22.226   2.149  51.019  1.00  0.00    +0.120 A 
ATOM      9  C   UNL     1      23.955   3.398  50.244  1.00  0.00    +0.014 A 
ATOM     10  C   UNL     1      23.451   2.682  49.184  1.00  0.00    +0.028 A 
ATOM     11  N   UNL     1      23.204   3.069  51.343  1.00  0.00    -0.345 N 
ATOM     12  C   UNL     1      22.361   1.891  49.657  1.00  0.00    -0.008 A 
ATOM     13  C   UNL     1      25.068   4.373  50.321  1.00  0.00    +0.064 C 
ATOM     14  H   UNL     1      23.316   3.481  52.258  1.00  0.00    +0.168 HD
ATOM     15  C   UNL     1      21.584   0.953  48.799  1.00  0.00    +0.048 C 
ENDBRANCH   7   8
BRANCH   7  16
ATOM     16  C   UNL     1      20.039   2.268  52.066  1.00  0.00    +0.282 C 
ATOM     17  O   UNL     1      19.760   3.283  52.704  1.00  0.00    -0.266 OA
BRANCH  16  18
ATOM     18  C   UNL     1      18.948   1.647  51.250  1.00  0.00    +0.129 A 
ATOM     19  C   UNL     1      18.498   0.366  51.561  1.00  0.00    +0.034 A 
ATOM     20  N   UNL     1      18.469   2.385  50.214  1.00  0.00    -0.251 NA
ATOM     21  C   UNL     1      17.492  -0.184  50.773  1.00  0.00    +0.004 A 
ATOM     22  C   UNL     1      17.502   1.815  49.466  1.00  0.00    +0.112 A 
ATOM     23  C   UNL     1      16.983   0.551  49.706  1.00  0.00    +0.020 A 
ENDBRANCH  16  18
ENDBRANCH   7  16
ENDBRANCH   1   7
BRANCH   4  24
ATOM     24  O   UNL     1      23.172  -1.945  55.828  1.00  0.00    -0.508 OA
ATOM     25  H   UNL     1      23.753  -2.604  55.413  1.00  0.00    +0.293 HD
ENDBRANCH   4  24
TORSDOF 5
ENDMDL
MODEL 3
REMARK VINA RESULT:    -7.059      1.864      4.971
REMARK INTER + INTRA:         -10.072
REMARK INTER:                  -8.956
REMARK INTRA:                  -1.116
REMARK UNBOUND:                -1.156
REMARK SMILES Cc1cc(C)c(N(C(=O)c2ccccn2)c2ccc(O)cc2)[nH]1
REMARK SMILES IDX 16 1 17 2 18 3 19 4 21 5 22 6 7 7 6 8 2 9 3 10 23 11 4 12
REMARK SMILES IDX 1 13 5 15 8 16 9 17 10 18 11 19 15 20 12 21 14 22 13 23
REMARK SMILES IDX 20 24
REMARK H PARENT 23 14 20 25
ROOT
ATOM      1  C   UNL     1      25.216   1.346  52.327  1.00  0.00    +0.051 A 
ATOM      2  C   UNL     1      25.955   0.230  51.899  1.00  0.00    +0.030 A 
ATOM      3  C   UNL     1      26.941  -0.329  52.715  1.00  0.00    +0.048 A 
ATOM      4  C   UNL     1      27.194   0.223  53.964  1.00  0.00    +0.115 A 
ATOM      5  C   UNL     1      26.477   1.325  54.413  1.00  0.00    +0.048 A 
ATOM      6  C   UNL     1      25.488   1.884  53.596  1.00  0.00    +0.030 A 
ENDROOT
BRANCH   1   7
ATOM      7  N   UNL     1      24.196   1.911  51.494  1.00  0.00    -0.261 N 
BRANCH   7   8
ATOM      8  C   UNL     1      24.375   3.233  51.041  1.00  0.00    +0.120 A 
ATOM      9  C   UNL     1      23.841   5.423  50.779  1.00  0.00    +0.014 A 
ATOM     10  C   UNL     1      25.011   5.194  50.093  1.00  0.00    +0.028 A 
ATOM     11  N   UNL     1      23.468   4.231  51.342  1.00  0.00    -0.345 N 
ATOM     12  C   UNL     1      25.358   3.818  50.249  1.00  0.00    -0.008 A 
ATOM     13  C   UNL     1      23.033   6.654  50.945  1.00  0.00    +0.064 C 
ATOM     14  H   UNL     1      22.617   4.085  51.867  1.00  0.00    +0.168 HD
ATOM     15  C   UNL     1      26.588   3.204  49.674  1.00  0.00    +0.048 C 
ENDBRANCH   7   8
BRANCH   7  16
ATOM     16  C   UNL     1      22.953   1.279  51.276  1.00  0.00    +0.282 C 
ATOM     17  O   UNL     1      22.368   1.192  50.197  1.00  0.00    -0.266 OA
BRANCH  16  18
ATOM     18  C   UNL     1      22.330   0.597  52.454  1.00  0.00    +0.129 A 
ATOM     19  C   UNL     1      22.656  -0.727  52.737  1.00  0.00    +0.034 A 
ATOM     20  N   UNL     1      21.443   1.328  53.179  1.00  0.00    -0.251 NA
ATOM     21  C   UNL     1      22.047  -1.332  53.832  1.00  0.00    +0.004 A 
ATOM     22  C   UNL     1      20.865   0.706  54.227  1.00  0.00    +0.112 A 
ATOM     23  C   UNL     1      21.134  -0.605  54.592  1.00  0.00    +0.020 A 
ENDBRANCH  16  18
ENDBRANCH   7  16
ENDBRANCH   1   7
BRANCH   4  24
ATOM     24  O   UNL     1      28.165  -0.353  54.727  1.00  0.00    -0.508 OA
ATOM     25  H   UNL     1      27.771  -0.643  55.567  1.00  0.00    +0.293 HD
ENDBRANCH   4  24
TORSDOF 5
ENDMDL
MODEL 4
REMARK VINA RESULT:    -6.962      2.602      5.098
REMARK INTER + INTRA:          -9.950
REMARK INTER:                  -8.742
REMARK INTRA:                  -1.208
REMARK UNBOUND:                -1.156
REMARK SMILES Cc1cc(C)c(N(C(=O)c2ccccn2)c2ccc(O)cc2)[nH]1
REMARK SMILES IDX 16 1 17 2 18 3 19 4 21 5 22 6 7 7 6 8 2 9 3 10 23 11 4 12
REMARK SMILES IDX 1 13 5 15 8 16 9 17 10 18 11 19 15 20 12 21 14 22 13 23
REMARK SMILES IDX 20 24
REMARK H PARENT 23 14 20 25
ROOT
ATOM      1  C   UNL     1      22.264   2.285  50.724  1.00  0.00    +0.051 A 
ATOM      2  C   UNL     1      21.233   3.237  50.791  1.00  0.00    +0.030 A 
ATOM      3  C   UNL     1      20.249   3.295  49.801  1.00  0.00    +0.048 A 
ATOM      4  C   UNL     1      20.289   2.400  48.739  1.00  0.00    +0.115 A 
ATOM      5  C   UNL     1      21.296   1.447  48.650  1.00  0.00    +0.048 A 
ATOM      6  C   UNL     1      22.280   1.390  49.643  1.00  0.00    +0.030 A 
ENDROOT
BRANCH   1   7
ATOM      7  N   UNL     1      23.266   2.219  51.747  1.00  0.00    -0.261 N 
BRANCH   7   8
ATOM      8  C   UNL     1      23.302   1.070  52.560  1.00  0.00    +0.120 A 
ATOM      9  C   UNL     1      22.447  -0.534  53.919  1.00  0.00    +0.014 A 
ATOM     10  C   UNL     1      23.799  -0.761  53.806  1.00  0.00    +0.028 A 
ATOM     11  N   UNL     1      22.163   0.575  53.166  1.00  0.00    -0.345 N 
ATOM     12  C   UNL     1      24.350   0.242  52.953  1.00  0.00    -0.008 A 
ATOM     13  C   UNL     1      21.398  -1.252  54.680  1.00  0.00    +0.064 C 
ATOM     14  H   UNL     1      21.252   1.006  53.100  1.00  0.00    +0.168 HD
ATOM     15  C   UNL     1      25.787   0.301  52.565  1.00  0.00    +0.048 C 
ENDBRANCH   7   8
BRANCH   7  16
ATOM     16  C   UNL     1      24.074   3.323  52.093  1.00  0.00    +0.282 C 
ATOM     17  O   UNL     1      24.199   3.799  53.222  1.00  0.00    -0.266 OA
BRANCH  16  18
ATOM     18  C   UNL     1      24.902   3.921  50.999  1.00  0.00    +0.129 A 
ATOM     19  C   UNL     1      25.918   3.170  50.412  1.00  0.00    +0.034 A 
ATOM     20  N   UNL     1      24.616   5.204  50.653  1.00  0.00    -0.251 NA
ATOM     21  C   UNL     1      26.674   3.763  49.407  1.00  0.00    +0.004 A 
ATOM     22  C   UNL     1      25.377   5.749  49.682  1.00  0.00    +0.112 A 
ATOM     23  C   UNL     1      26.403   5.075  49.034  1.00  0.00    +0.020 A 
ENDBRANCH  16  18
ENDBRANCH   7  16
ENDBRANCH   1   7
BRANCH   4  24
ATOM     24  O   UNL     1      19.311   2.492  47.796  1.00  0.00    -0.508 OA
ATOM     25  H   UNL     1      19.240   3.418  47.508  1.00  0.00    +0.293 HD
ENDBRANCH   4  24
TORSDOF 5
ENDMDL
MODEL 5
REMARK VINA RESULT:    -6.954      1.910      5.039
REMARK INTER + INTRA:          -9.939
REMARK INTER:                  -8.919
REMARK INTRA:                  -1.020
REMARK UNBOUND:                -1.156
REMARK SMILES Cc1cc(C)c(N(C(=O)c2ccccn2)c2ccc(O)cc2)[nH]1
REMARK SMILES IDX 16 1 17 2 18 3 19 4 21 5 22 6 7 7 6 8 2 9 3 10 23 11 4 12
REMARK SMILES IDX 1 13 5 15 8 16 9 17 10 18 11 19 15 20 12 21 14 22 13 23
REMARK SMILES IDX 20 24
REMARK H PARENT 23 14 20 25
ROOT
ATOM      1  C   UNL     1      25.301   1.308  52.351  1.00  0.00    +0.051 A 
ATOM      2  C   UNL     1      26.079   0.235  51.885  1.00  0.00    +0.030 A 
ATOM      3  C   UNL     1      27.053  -0.347  52.700  1.00  0.00    +0.048 A 
ATOM      4  C   UNL     1      27.255   0.140  53.985  1.00  0.00    +0.115 A 
ATOM      5  C   UNL     1      26.498   1.198  54.471  1.00  0.00    +0.048 A 
ATOM      6  C   UNL     1      25.522   1.779  53.655  1.00  0.00    +0.030 A 
ENDROOT
BRANCH   1   7
ATOM      7  N   UNL     1      24.293   1.896  51.518  1.00  0.00    -0.261 N 
BRANCH   7   8
ATOM      8  C   UNL     1      24.485   3.225  51.093  1.00  0.00    +0.120 A 
ATOM      9  C   UNL     1      25.438   4.900  49.894  1.00  0.00    +0.014 A 
ATOM     10  C   UNL     1      24.503   5.465  50.729  1.00  0.00    +0.028 A 
ATOM     11  N   UNL     1      25.418   3.549  50.127  1.00  0.00    -0.345 N 
ATOM     12  C   UNL     1      23.896   4.422  51.491  1.00  0.00    -0.008 A 
ATOM     13  C   UNL     1      26.359   5.509  48.906  1.00  0.00    +0.064 C 
ATOM     14  H   UNL     1      26.038   2.882  49.689  1.00  0.00    +0.168 HD
ATOM     15  C   UNL     1      22.806   4.646  52.482  1.00  0.00    +0.048 C 
ENDBRANCH   7   8
BRANCH   7  16
ATOM     16  C   UNL     1      23.049   1.277  51.276  1.00  0.00    +0.282 C 
ATOM     17  O   UNL     1      22.477   1.209  50.188  1.00  0.00    -0.266 OA
BRANCH  16  18
ATOM     18  C   UNL     1      22.405   0.583  52.436  1.00  0.00    +0.129 A 
ATOM     19  C   UNL     1      21.445   1.250  53.193  1.00  0.00    +0.034 A 
ATOM     20  N   UNL     1      22.827  -0.682  52.697  1.00  0.00    -0.251 NA
ATOM     21  C   UNL     1      20.878   0.578  54.271  1.00  0.00    +0.004 A 
ATOM     22  C   UNL     1      22.262  -1.298  53.756  1.00  0.00    +0.112 A 
ATOM     23  C   UNL     1      21.292  -0.718  54.560  1.00  0.00    +0.020 A 
ENDBRANCH  16  18
ENDBRANCH   7  16
ENDBRANCH   1   7
BRANCH   4  24
ATOM     24  O   UNL     1      28.216  -0.456  54.745  1.00  0.00    -0.508 OA
ATOM     25  H   UNL     1      29.089  -0.191  54.410  1.00  0.00    +0.293 HD
ENDBRANCH   4  24
TORSDOF 5
ENDMDL
MODEL 6
REMARK VINA RESULT:    -6.850      1.483      4.670
REMARK INTER + INTRA:          -9.808
REMARK INTER:                  -8.944
REMARK INTRA:                  -0.864
REMARK UNBOUND:                -1.156
REMARK SMILES Cc1cc(C)c(N(C(=O)c2ccccn2)c2ccc(O)cc2)[nH]1
REMARK SMILES IDX 16 1 17 2 18 3 19 4 21 5 22 6 7 7 6 8 2 9 3 10 23 11 4 12
REMARK SMILES IDX 1 13 5 15 8 16 9 17 10 18 11 19 15 20 12 21 14 22 13 23
REMARK SMILES IDX 20 24
REMARK H PARENT 23 14 20 25
ROOT
ATOM      1  C   UNL     1      26.073   1.503  52.525  1.00  0.00    +0.051 A 
ATOM      2  C   UNL     1      26.163   0.212  51.978  1.00  0.00    +0.030 A 
ATOM      3  C   UNL     1      27.118  -0.695  52.444  1.00  0.00    +0.048 A 
ATOM      4  C   UNL     1      27.988  -0.317  53.459  1.00  0.00    +0.115 A 
ATOM      5  C   UNL     1      27.920   0.953  54.018  1.00  0.00    +0.048 A 
ATOM      6  C   UNL     1      26.961   1.859  53.552  1.00  0.00    +0.030 A 
ENDROOT
BRANCH   1   7
ATOM      7  N   UNL     1      25.084   2.428  52.054  1.00  0.00    -0.261 N 
BRANCH   7   8
ATOM      8  C   UNL     1      25.323   3.078  50.828  1.00  0.00    +0.120 A 
ATOM      9  C   UNL     1      26.513   4.288  49.322  1.00  0.00    +0.014 A 
ATOM     10  C   UNL     1      25.283   4.025  48.766  1.00  0.00    +0.028 A 
ATOM     11  N   UNL     1      26.521   3.714  50.566  1.00  0.00    -0.345 N 
ATOM     12  C   UNL     1      24.523   3.264  49.704  1.00  0.00    -0.008 A 
ATOM     13  C   UNL     1      27.679   5.039  48.800  1.00  0.00    +0.064 C 
ATOM     14  H   UNL     1      27.282   3.786  51.227  1.00  0.00    +0.168 HD
ATOM     15  C   UNL     1      23.146   2.761  49.440  1.00  0.00    +0.048 C 
ENDBRANCH   7   8
BRANCH   7  16
ATOM     16  C   UNL     1      23.999   2.853  52.850  1.00  0.00    +0.282 C 
ATOM     17  O   UNL     1      23.949   3.895  53.504  1.00  0.00    -0.266 OA
BRANCH  16  18
ATOM     18  C   UNL     1      22.777   1.988  52.839  1.00  0.00    +0.129 A 
ATOM     19  C   UNL     1      22.880   0.644  53.190  1.00  0.00    +0.034 A 
ATOM     20  N   UNL     1      21.617   2.582  52.455  1.00  0.00    -0.251 NA
ATOM     21  C   UNL     1      21.725  -0.132  53.156  1.00  0.00    +0.004 A 
ATOM     22  C   UNL     1      20.520   1.796  52.425  1.00  0.00    +0.112 A 
ATOM     23  C   UNL     1      20.524   0.452  52.766  1.00  0.00    +0.020 A 
ENDBRANCH  16  18
ENDBRANCH   7  16
ENDBRANCH   1   7
BRANCH   4  24
ATOM     24  O   UNL     1      28.905  -1.232  53.882  1.00  0.00    -0.508 OA
ATOM     25  H   UNL     1      29.042  -1.118  54.837  1.00  0.00    +0.293 HD
ENDBRANCH   4  24
TORSDOF 5
ENDMDL
MODEL 7
REMARK VINA RESULT:    -6.775      1.783      5.075
REMARK INTER + INTRA:          -9.714
REMARK INTER:                  -9.491
REMARK INTRA:                  -0.223
REMARK UNBOUND:                -1.156
REMARK SMILES Cc1cc(C)c(N(C(=O)c2ccccn2)c2ccc(O)cc2)[nH]1
REMARK SMILES IDX 16 1 17 2 18 3 19 4 21 5 22 6 7 7 6 8 2 9 3 10 23 11 4 12
REMARK SMILES IDX 1 13 5 15 8 16 9 17 10 18 11 19 15 20 12 21 14 22 13 23
REMARK SMILES IDX 20 24
REMARK H PARENT 23 14 20 25
ROOT
ATOM      1  C   UNL     1      25.372   2.448  51.679  1.00  0.00    +0.051 A 
ATOM      2  C   UNL     1      24.615   3.630  51.729  1.00  0.00    +0.030 A 
ATOM      3  C   UNL     1      24.799   4.636  50.777  1.00  0.00    +0.048 A 
ATOM      4  C   UNL     1      25.741   4.466  49.770  1.00  0.00    +0.115 A 
ATOM      5  C   UNL     1      26.502   3.306  49.697  1.00  0.00    +0.048 A 
ATOM      6  C   UNL     1      26.315   2.298  50.649  1.00  0.00    +0.030 A 
ENDROOT
BRANCH   1   7
ATOM      7  N   UNL     1      25.173   1.411  52.649  1.00  0.00    -0.261 N 
BRANCH   7   8
ATOM      8  C   UNL     1      23.899   0.818  52.725  1.00  0.00    +0.120 A 
ATOM      9  C   UNL     1      22.238  -0.412  53.663  1.00  0.00    +0.014 A 
ATOM     10  C   UNL     1      21.799   0.008  52.429  1.00  0.00    +0.028 A 
ATOM     11  N   UNL     1      23.507   0.080  53.826  1.00  0.00    -0.345 N 
ATOM     12  C   UNL     1      22.836   0.783  51.827  1.00  0.00    -0.008 A 
ATOM     13  C   UNL     1      21.584  -1.245  54.700  1.00  0.00    +0.064 C 
ATOM     14  H   UNL     1      24.099  -0.110  54.622  1.00  0.00    +0.168 HD
ATOM     15  C   UNL     1      22.712   1.439  50.495  1.00  0.00    +0.048 C 
ENDBRANCH   7   8
BRANCH   7  16
ATOM     16  C   UNL     1      26.126   1.107  53.644  1.00  0.00    +0.282 C 
ATOM     17  O   UNL     1      26.248   1.682  54.726  1.00  0.00    -0.266 OA
BRANCH  16  18
ATOM     18  C   UNL     1      27.021  -0.065  53.383  1.00  0.00    +0.129 A 
ATOM     19  C   UNL     1      26.506  -1.204  52.769  1.00  0.00    +0.034 A 
ATOM     20  N   UNL     1      28.311   0.053  53.795  1.00  0.00    -0.251 NA
ATOM     21  C   UNL     1      27.365  -2.277  52.554  1.00  0.00    +0.004 A 
ATOM     22  C   UNL     1      29.111  -1.011  53.579  1.00  0.00    +0.112 A 
ATOM     23  C   UNL     1      28.691  -2.182  52.966  1.00  0.00    +0.020 A 
ENDBRANCH  16  18
ENDBRANCH   7  16
ENDBRANCH   1   7
BRANCH   4  24
ATOM     24  O   UNL     1      25.889   5.472  48.864  1.00  0.00    -0.508 OA
ATOM     25  H   UNL     1      25.721   6.320  49.308  1.00  0.00    +0.293 HD
ENDBRANCH   4  24
TORSDOF 5
ENDMDL
MODEL 8
REMARK VINA RESULT:    -6.736      2.281      5.350
REMARK INTER + INTRA:          -9.665
REMARK INTER:                  -8.951
REMARK INTRA:                  -0.714
REMARK UNBOUND:                -1.156
REMARK SMILES Cc1cc(C)c(N(C(=O)c2ccccn2)c2ccc(O)cc2)[nH]1
REMARK SMILES IDX 16 1 17 2 18 3 19 4 21 5 22 6 7 7 6 8 2 9 3 10 23 11 4 12
REMARK SMILES IDX 1 13 5 15 8 16 9 17 10 18 11 19 15 20 12 21 14 22 13 23
REMARK SMILES IDX 20 24
REMARK H PARENT 23 14 20 25
ROOT
ATOM      1  C   UNL     1      25.231   3.699  50.637  1.00  0.00    +0.051 A 
ATOM      2  C   UNL     1      26.363   3.339  49.886  1.00  0.00    +0.030 A 
ATOM      3  C   UNL     1      26.990   4.266  49.051  1.00  0.00    +0.048 A 
ATOM      4  C   UNL     1      26.491   5.559  48.961  1.00  0.00    +0.115 A 
ATOM      5  C   UNL     1      25.374   5.943  49.693  1.00  0.00    +0.048 A 
ATOM      6  C   UNL     1      24.748   5.013  50.531  1.00  0.00    +0.030 A 
ENDROOT
BRANCH   1   7
ATOM      7  N   UNL     1      24.596   2.750  51.502  1.00  0.00    -0.261 N 
BRANCH   7   8
ATOM      8  C   UNL     1      23.387   2.172  51.069  1.00  0.00    +0.120 A 
ATOM      9  C   UNL     1      21.457   0.997  51.286  1.00  0.00    +0.014 A 
ATOM     10  C   UNL     1      21.571   1.371  49.968  1.00  0.00    +0.028 A 
ATOM     11  N   UNL     1      22.560   1.484  51.937  1.00  0.00    -0.345 N 
ATOM     12  C   UNL     1      22.783   2.111  49.816  1.00  0.00    -0.008 A 
ATOM     13  C   UNL     1      20.415   0.214  51.991  1.00  0.00    +0.064 C 
ATOM     14  H   UNL     1      22.771   1.321  52.911  1.00  0.00    +0.168 HD
ATOM     15  C   UNL     1      23.230   2.714  48.529  1.00  0.00    +0.048 C 
ENDBRANCH   7   8
BRANCH   7  16
ATOM     16  C   UNL     1      25.021   2.525  52.829  1.00  0.00    +0.282 C 
ATOM     17  O   UNL     1      24.584   3.090  53.832  1.00  0.00    -0.266 OA
BRANCH  16  18
ATOM     18  C   UNL     1      26.047   1.454  53.034  1.00  0.00    +0.129 A 
ATOM     19  C   UNL     1      26.064   0.344  52.194  1.00  0.00    +0.034 A 
ATOM     20  N   UNL     1      26.907   1.629  54.072  1.00  0.00    -0.251 NA
ATOM     21  C   UNL     1      27.024  -0.637  52.424  1.00  0.00    +0.004 A 
ATOM     22  C   UNL     1      27.817   0.654  54.270  1.00  0.00    +0.112 A 
ATOM     23  C   UNL     1      27.917  -0.482  53.479  1.00  0.00    +0.020 A 
ENDBRANCH  16  18
ENDBRANCH   7  16
ENDBRANCH   1   7
BRANCH   4  24
ATOM     24  O   UNL     1      27.133   6.431  48.134  1.00  0.00    -0.508 OA
ATOM     25  H   UNL     1      28.090   6.358  48.286  1.00  0.00    +0.293 HD
ENDBRANCH   4  24
TORSDOF 5
ENDMDL
MODEL 9
REMARK VINA RESULT:    -6.675      1.410      2.185
REMARK INTER + INTRA:          -9.586
REMARK INTER:                  -8.885
REMARK INTRA:                  -0.701
REMARK UNBOUND:                -1.156
REMARK SMILES Cc1cc(C)c(N(C(=O)c2ccccn2)c2ccc(O)cc2)[nH]1
REMARK SMILES IDX 16 1 17 2 18 3 19 4 21 5 22 6 7 7 6 8 2 9 3 10 23 11 4 12
REMARK SMILES IDX 1 13 5 15 8 16 9 17 10 18 11 19 15 20 12 21 14 22 13 23
REMARK SMILES IDX 20 24
REMARK H PARENT 23 14 20 25
ROOT
ATOM      1  C   UNL     1      25.377   1.072  53.094  1.00  0.00    +0.051 A 
ATOM      2  C   UNL     1      25.636  -0.094  52.353  1.00  0.00    +0.030 A 
ATOM      3  C   UNL     1      26.764  -0.873  52.620  1.00  0.00    +0.048 A 
ATOM      4  C   UNL     1      27.639  -0.493  53.629  1.00  0.00    +0.115 A 
ATOM      5  C   UNL     1      27.406   0.653  54.378  1.00  0.00    +0.048 A 
ATOM      6  C   UNL     1      26.275   1.432  54.111  1.00  0.00    +0.030 A 
ENDROOT
BRANCH   1   7
ATOM      7  N   UNL     1      24.213   1.864  52.826  1.00  0.00    -0.261 N 
BRANCH   7   8
ATOM      8  C   UNL     1      23.014   1.190  52.525  1.00  0.00    +0.120 A 
ATOM      9  C   UNL     1      21.209  -0.119  52.950  1.00  0.00    +0.014 A 
ATOM     10  C   UNL     1      21.163   0.235  51.622  1.00  0.00    +0.028 A 
ATOM     11  N   UNL     1      22.332   0.461  53.481  1.00  0.00    -0.345 N 
ATOM     12  C   UNL     1      22.295   1.059  51.340  1.00  0.00    -0.008 A 
ATOM     13  C   UNL     1      20.304  -0.962  53.767  1.00  0.00    +0.064 C 
ATOM     14  H   UNL     1      22.649   0.334  54.431  1.00  0.00    +0.168 HD
ATOM     15  C   UNL     1      22.566   1.665  50.007  1.00  0.00    +0.048 C 
ENDBRANCH   7   8
BRANCH   7  16
ATOM     16  C   UNL     1      24.266   3.264  52.662  1.00  0.00    +0.282 C 
ATOM     17  O   UNL     1      23.886   4.102  53.481  1.00  0.00    -0.266 OA
BRANCH  16  18
ATOM     18  C   UNL     1      24.906   3.771  51.406  1.00  0.00    +0.129 A 
ATOM     19  C   UNL     1      24.321   4.827  50.712  1.00  0.00    +0.034 A 
ATOM     20  N   UNL     1      26.036   3.134  51.001  1.00  0.00    -0.251 NA
ATOM     21  C   UNL     1      24.936   5.262  49.542  1.00  0.00    +0.004 A 
ATOM     22  C   UNL     1      26.599   3.577  49.858  1.00  0.00    +0.112 A 
ATOM     23  C   UNL     1      26.095   4.627  49.105  1.00  0.00    +0.020 A 
ENDBRANCH  16  18
ENDBRANCH   7  16
ENDBRANCH   1   7
BRANCH   4  24
ATOM     24  O   UNL     1      28.726  -1.282  53.855  1.00  0.00    -0.508 OA
ATOM     25  H   UNL     1      28.732  -2.001  53.201  1.00  0.00    +0.293 HD
ENDBRANCH   4  24
TORSDOF 5
ENDMDL
