REMARK SMILES Cc1cc(C)c(N(C)CC/N=N/Nc2ccc3ncnc(-c4cccc(Cl)c4)c3c2)[nH]1
REMARK SMILES IDX 11 1 12 2 10 3 9 4 7 5 8 6 6 7 2 8 3 9 31 10 4 11 1 12 5 14
REMARK SMILES IDX 13 15 14 17 15 18 30 19 16 20 29 21 17 22 21 23 18 24 20 25
REMARK SMILES IDX 19 26 22 27 23 28 28 29 24 30 26 31 25 32 27 33
REMARK H PARENT 31 13 13 16
ROOT
ATOM      1  N   UNL     1       0.675   0.884   0.597  1.00  0.00    -0.169 NA
ATOM      2  N   UNL     1       0.469   0.508  -0.569  1.00  0.00    -0.075 NA
ENDROOT
BRANCH   1   3
ATOM      3  C   UNL     1       2.075   0.719   1.016  1.00  0.00    +0.190 C 
BRANCH   3   4
ATOM      4  C   UNL     1       2.904   1.971   0.700  1.00  0.00    +0.143 C 
BRANCH   4   5
ATOM      5  N   UNL     1       3.630   1.880  -0.586  1.00  0.00    -0.359 N 
ATOM      6  C   UNL     1       2.901   2.376  -1.741  1.00  0.00    +0.145 C 
BRANCH   5   7
ATOM      7  C   UNL     1       4.664   0.991  -0.753  1.00  0.00    +0.108 A 
ATOM      8  C   UNL     1       6.345  -0.338  -0.009  1.00  0.00    +0.014 A 
ATOM      9  C   UNL     1       6.233  -0.528  -1.366  1.00  0.00    +0.028 A 
ATOM     10  N   UNL     1       5.430   0.619   0.332  1.00  0.00    -0.346 N 
ATOM     11  C   UNL     1       5.201   0.327  -1.853  1.00  0.00    -0.009 A 
ATOM     12  C   UNL     1       7.227  -0.963   0.996  1.00  0.00    +0.064 C 
ATOM     13  H   UNL     1       5.320   0.991   1.260  1.00  0.00    +0.168 HD
ATOM     14  C   UNL     1       4.802   0.396  -3.286  1.00  0.00    +0.048 C 
ENDBRANCH   5   7
ENDBRANCH   4   5
ENDBRANCH   3   4
ENDBRANCH   1   3
BRANCH   2  15
ATOM     15  N   UNL     1      -0.881   0.533  -0.755  1.00  0.00    -0.260 N 
ATOM     16  H   UNL     1      -1.074   0.592  -1.748  1.00  0.00    +0.192 HD
BRANCH  15  17
ATOM     17  C   UNL     1      -1.593  -0.617  -0.300  1.00  0.00    +0.059 A 
ATOM     18  C   UNL     1      -1.050  -1.898  -0.344  1.00  0.00    +0.030 A 
ATOM     19  C   UNL     1      -2.924  -0.470   0.093  1.00  0.00    +0.040 A 
ATOM     20  C   UNL     1      -1.810  -2.996   0.063  1.00  0.00    +0.031 A 
ATOM     21  C   UNL     1      -3.690  -1.586   0.517  1.00  0.00    +0.029 A 
ATOM     22  C   UNL     1      -3.117  -2.862   0.506  1.00  0.00    +0.074 A 
ATOM     23  C   UNL     1      -5.010  -1.540   0.987  1.00  0.00    +0.082 A 
ATOM     24  N   UNL     1      -3.772  -3.956   0.905  1.00  0.00    -0.236 NA
ATOM     25  N   UNL     1      -5.680  -2.631   1.414  1.00  0.00    -0.236 NA
ATOM     26  C   UNL     1      -5.020  -3.788   1.349  1.00  0.00    +0.223 A 
BRANCH  23  27
ATOM     27  C   UNL     1      -5.792  -0.300   1.097  1.00  0.00    +0.002 A 
ATOM     28  C   UNL     1      -6.102   0.227   2.362  1.00  0.00    +0.010 A 
ATOM     29  C   UNL     1      -6.272   0.366  -0.043  1.00  0.00    +0.030 A 
ATOM     30  C   UNL     1      -6.864   1.391   2.492  1.00  0.00    +0.002 A 
ATOM     31  C   UNL     1      -7.034   1.528   0.092  1.00  0.00    +0.041 A 
ATOM     32  C   UNL     1      -7.331   2.042   1.353  1.00  0.00    +0.020 A 
ATOM     33 Cl   UNL     1      -7.621   2.334  -1.314  1.00  0.00    -0.084 Cl
ENDBRANCH  23  27
ENDBRANCH  15  17
ENDBRANCH   2  15
TORSDOF 7
