MODEL 1
REMARK VINA RESULT:    -6.311      0.000      0.000
REMARK INTER + INTRA:          -9.580
REMARK INTER:                  -8.709
REMARK INTRA:                  -0.872
REMARK UNBOUND:                -0.872
REMARK SMILES C[N+](C)(C)C[C@H](O)CO[C@H]1CCCC[C@@H]1c1nc2ccccc2s1
REMARK SMILES IDX 6 1 5 2 2 3 1 4 3 5 4 6 7 7 8 9 9 10 10 11 11 12 15 13 12 14
REMARK SMILES IDX 14 15 13 16 16 17 17 18 24 19 18 20 23 21 19 22 22 23 20 24
REMARK SMILES IDX 21 25
REMARK H PARENT 7 8
ROOT
ATOM      1  C   UNL     1      24.056  -0.505  54.456  1.00  0.00    +0.195 C 
ENDROOT
BRANCH   1   2
ATOM      2  C   UNL     1      25.409  -0.872  53.799  1.00  0.00    +0.297 C 
BRANCH   2   3
ATOM      3  N   UNL     1      26.585   0.101  54.117  1.00  0.00    -0.329 N 
ATOM      4  C   UNL     1      27.035  -0.035  55.562  1.00  0.00    +0.334 C 
ATOM      5  C   UNL     1      27.769  -0.127  53.184  1.00  0.00    +0.334 C 
ATOM      6  C   UNL     1      26.069   1.525  53.899  1.00  0.00    +0.334 C 
ENDBRANCH   2   3
ENDBRANCH   1   2
BRANCH   1   7
ATOM      7  O   UNL     1      23.785  -1.380  55.555  1.00  0.00    -0.385 OA
ATOM      8  H   UNL     1      23.910  -2.301  55.253  1.00  0.00    +0.211 HD
ENDBRANCH   1   7
BRANCH   1   9
ATOM      9  C   UNL     1      22.930  -0.623  53.413  1.00  0.00    +0.198 C 
BRANCH   9  10
ATOM     10  O   UNL     1      22.336   0.649  53.170  1.00  0.00    -0.375 OA
BRANCH  10  11
ATOM     11  C   UNL     1      22.920   1.368  52.060  1.00  0.00    +0.128 C 
ATOM     12  C   UNL     1      22.096   0.995  50.818  1.00  0.00    +0.033 C 
ATOM     13  C   UNL     1      22.920   2.885  52.368  1.00  0.00    +0.078 C 
ATOM     14  C   UNL     1      20.698   1.605  50.830  1.00  0.00    +0.003 C 
ATOM     15  C   UNL     1      21.503   3.481  52.301  1.00  0.00    +0.013 C 
ATOM     16  C   UNL     1      20.754   3.114  51.022  1.00  0.00    +0.001 C 
BRANCH  13  17
ATOM     17  C   UNL     1      23.890   3.627  51.477  1.00  0.00    +0.099 A 
ATOM     18  N   UNL     1      24.953   3.088  50.920  1.00  0.00    -0.241 NA
ATOM     19  S   UNL     1      23.673   5.307  51.175  1.00  0.00    -0.118 S 
ATOM     20  C   UNL     1      25.626   4.033  50.160  1.00  0.00    +0.082 A 
ATOM     21  C   UNL     1      25.074   5.315  50.177  1.00  0.00    +0.055 A 
ATOM     22  C   UNL     1      26.792   3.805  49.401  1.00  0.00    +0.030 A 
ATOM     23  C   UNL     1      25.647   6.379  49.460  1.00  0.00    +0.021 A 
ATOM     24  C   UNL     1      27.370   4.857  48.682  1.00  0.00    +0.002 A 
ATOM     25  C   UNL     1      26.802   6.127  48.714  1.00  0.00    +0.002 A 
ENDBRANCH  13  17
ENDBRANCH  10  11
ENDBRANCH   9  10
ENDBRANCH   1   9
TORSDOF 7
ENDMDL
MODEL 2
REMARK VINA RESULT:    -6.290      3.005      5.832
REMARK INTER + INTRA:          -9.553
REMARK INTER:                  -9.306
REMARK INTRA:                  -0.247
REMARK UNBOUND:                -0.872
REMARK SMILES C[N+](C)(C)C[C@H](O)CO[C@H]1CCCC[C@@H]1c1nc2ccccc2s1
REMARK SMILES IDX 6 1 5 2 2 3 1 4 3 5 4 6 7 7 8 9 9 10 10 11 11 12 15 13 12 14
REMARK SMILES IDX 14 15 13 16 16 17 17 18 24 19 18 20 23 21 19 22 22 23 20 24
REMARK SMILES IDX 21 25
REMARK H PARENT 7 8
ROOT
ATOM      1  C   UNL     1      27.006   1.823  52.345  1.00  0.00    +0.195 C 
ENDROOT
BRANCH   1   2
ATOM      2  C   UNL     1      28.241   1.591  53.251  1.00  0.00    +0.297 C 
BRANCH   2   3
ATOM      3  N   UNL     1      28.451   0.119  53.720  1.00  0.00    -0.329 N 
ATOM      4  C   UNL     1      27.521  -0.830  52.982  1.00  0.00    +0.334 C 
ATOM      5  C   UNL     1      29.897  -0.327  53.536  1.00  0.00    +0.334 C 
ATOM      6  C   UNL     1      28.118   0.064  55.212  1.00  0.00    +0.334 C 
ENDBRANCH   2   3
ENDBRANCH   1   2
BRANCH   1   7
ATOM      7  O   UNL     1      27.246   2.911  51.449  1.00  0.00    -0.385 OA
ATOM      8  H   UNL     1      28.118   3.298  51.663  1.00  0.00    +0.211 HD
ENDBRANCH   1   7
BRANCH   1   9
ATOM      9  C   UNL     1      25.779   2.135  53.220  1.00  0.00    +0.198 C 
BRANCH   9  10
ATOM     10  O   UNL     1      24.983   3.154  52.623  1.00  0.00    -0.375 OA
BRANCH  10  11
ATOM     11  C   UNL     1      23.568   2.858  52.601  1.00  0.00    +0.128 C 
ATOM     12  C   UNL     1      22.844   4.204  52.438  1.00  0.00    +0.033 C 
ATOM     13  C   UNL     1      23.266   1.854  51.462  1.00  0.00    +0.078 C 
ATOM     14  C   UNL     1      23.017   4.804  51.047  1.00  0.00    +0.003 C 
ATOM     15  C   UNL     1      23.380   2.512  50.075  1.00  0.00    +0.013 C 
ATOM     16  C   UNL     1      22.600   3.820  49.963  1.00  0.00    +0.001 C 
BRANCH  13  17
ATOM     17  C   UNL     1      21.928   1.181  51.662  1.00  0.00    +0.099 A 
ATOM     18  N   UNL     1      21.594   0.486  52.728  1.00  0.00    -0.241 NA
ATOM     19  S   UNL     1      20.734   1.247  50.425  1.00  0.00    -0.118 S 
ATOM     20  C   UNL     1      20.298   0.009  52.603  1.00  0.00    +0.082 A 
ATOM     21  C   UNL     1      19.661   0.324  51.402  1.00  0.00    +0.055 A 
ATOM     22  C   UNL     1      19.601  -0.752  53.564  1.00  0.00    +0.030 A 
ATOM     23  C   UNL     1      18.348  -0.094  51.127  1.00  0.00    +0.021 A 
ATOM     24  C   UNL     1      18.293  -1.172  53.300  1.00  0.00    +0.002 A 
ATOM     25  C   UNL     1      17.676  -0.846  52.096  1.00  0.00    +0.002 A 
ENDBRANCH  13  17
ENDBRANCH  10  11
ENDBRANCH   9  10
ENDBRANCH   1   9
TORSDOF 7
ENDMDL
MODEL 3
REMARK VINA RESULT:    -6.186      3.145      6.250
REMARK INTER + INTRA:          -9.408
REMARK INTER:                  -8.877
REMARK INTRA:                  -0.532
REMARK UNBOUND:                -0.872
REMARK SMILES C[N+](C)(C)C[C@H](O)CO[C@H]1CCCC[C@@H]1c1nc2ccccc2s1
REMARK SMILES IDX 6 1 5 2 2 3 1 4 3 5 4 6 7 7 8 9 9 10 10 11 11 12 15 13 12 14
REMARK SMILES IDX 14 15 13 16 16 17 17 18 24 19 18 20 23 21 19 22 22 23 20 24
REMARK SMILES IDX 21 25
REMARK H PARENT 7 8
ROOT
ATOM      1  C   UNL     1      26.745   2.121  52.025  1.00  0.00    +0.195 C 
ENDROOT
BRANCH   1   2
ATOM      2  C   UNL     1      27.524   1.903  53.346  1.00  0.00    +0.297 C 
BRANCH   2   3
ATOM      3  N   UNL     1      27.692   0.415  53.778  1.00  0.00    -0.329 N 
ATOM      4  C   UNL     1      27.317  -0.531  52.648  1.00  0.00    +0.334 C 
ATOM      5  C   UNL     1      29.113   0.123  54.246  1.00  0.00    +0.334 C 
ATOM      6  C   UNL     1      26.741   0.171  54.952  1.00  0.00    +0.334 C 
ENDBRANCH   2   3
ENDBRANCH   1   2
BRANCH   1   7
ATOM      7  O   UNL     1      27.318   3.201  51.284  1.00  0.00    -0.385 OA
ATOM      8  H   UNL     1      27.334   2.952  50.339  1.00  0.00    +0.211 HD
ENDBRANCH   1   7
BRANCH   1   9
ATOM      9  C   UNL     1      25.273   2.437  52.344  1.00  0.00    +0.198 C 
BRANCH   9  10
ATOM     10  O   UNL     1      24.421   1.959  51.308  1.00  0.00    -0.375 OA
BRANCH  10  11
ATOM     11  C   UNL     1      23.033   1.842  51.695  1.00  0.00    +0.128 C 
ATOM     12  C   UNL     1      22.573   3.252  52.096  1.00  0.00    +0.033 C 
ATOM     13  C   UNL     1      22.218   1.237  50.526  1.00  0.00    +0.078 C 
ATOM     14  C   UNL     1      22.444   4.194  50.904  1.00  0.00    +0.003 C 
ATOM     15  C   UNL     1      22.046   2.239  49.370  1.00  0.00    +0.013 C 
ATOM     16  C   UNL     1      21.541   3.606  49.828  1.00  0.00    +0.001 C 
BRANCH  13  17
ATOM     17  C   UNL     1      20.893   0.690  51.004  1.00  0.00    +0.099 A 
ATOM     18  N   UNL     1      19.781   0.704  50.301  1.00  0.00    -0.241 NA
ATOM     19  S   UNL     1      20.750   0.036  52.590  1.00  0.00    -0.118 S 
ATOM     20  C   UNL     1      18.750   0.121  51.022  1.00  0.00    +0.082 A 
ATOM     21  C   UNL     1      19.089  -0.307  52.306  1.00  0.00    +0.055 A 
ATOM     22  C   UNL     1      17.426  -0.060  50.572  1.00  0.00    +0.030 A 
ATOM     23  C   UNL     1      18.150  -0.913  53.159  1.00  0.00    +0.021 A 
ATOM     24  C   UNL     1      16.484  -0.662  51.413  1.00  0.00    +0.002 A 
ATOM     25  C   UNL     1      16.844  -1.083  52.689  1.00  0.00    +0.002 A 
ENDBRANCH  13  17
ENDBRANCH  10  11
ENDBRANCH   9  10
ENDBRANCH   1   9
TORSDOF 7
ENDMDL
MODEL 4
REMARK VINA RESULT:    -6.159      2.816      6.598
REMARK INTER + INTRA:          -9.371
REMARK INTER:                  -8.656
REMARK INTRA:                  -0.715
REMARK UNBOUND:                -0.872
REMARK SMILES C[N+](C)(C)C[C@H](O)CO[C@H]1CCCC[C@@H]1c1nc2ccccc2s1
REMARK SMILES IDX 6 1 5 2 2 3 1 4 3 5 4 6 7 7 8 9 9 10 10 11 11 12 15 13 12 14
REMARK SMILES IDX 14 15 13 16 16 17 17 18 24 19 18 20 23 21 19 22 22 23 20 24
REMARK SMILES IDX 21 25
REMARK H PARENT 7 8
ROOT
ATOM      1  C   UNL     1      19.387   2.385  52.005  1.00  0.00    +0.195 C 
ENDROOT
BRANCH   1   2
ATOM      2  C   UNL     1      19.106   1.998  50.532  1.00  0.00    +0.297 C 
BRANCH   2   3
ATOM      3  N   UNL     1      17.609   1.722  50.194  1.00  0.00    -0.329 N 
ATOM      4  C   UNL     1      16.696   2.212  51.306  1.00  0.00    +0.334 C 
ATOM      5  C   UNL     1      17.205   2.366  48.873  1.00  0.00    +0.334 C 
ATOM      6  C   UNL     1      17.444   0.207  50.061  1.00  0.00    +0.334 C 
ENDBRANCH   2   3
ENDBRANCH   1   2
BRANCH   1   7
ATOM      7  O   UNL     1      19.886   3.723  52.080  1.00  0.00    -0.385 OA
ATOM      8  H   UNL     1      20.773   3.698  52.490  1.00  0.00    +0.211 HD
ENDBRANCH   1   7
BRANCH   1   9
ATOM      9  C   UNL     1      20.422   1.414  52.602  1.00  0.00    +0.198 C 
BRANCH   9  10
ATOM     10  O   UNL     1      21.638   2.095  52.897  1.00  0.00    -0.375 OA
BRANCH  10  11
ATOM     11  C   UNL     1      22.827   1.357  52.537  1.00  0.00    +0.128 C 
ATOM     12  C   UNL     1      22.802   1.212  51.007  1.00  0.00    +0.033 C 
ATOM     13  C   UNL     1      24.078   2.099  53.066  1.00  0.00    +0.078 C 
ATOM     14  C   UNL     1      23.071   2.529  50.284  1.00  0.00    +0.003 C 
ATOM     15  C   UNL     1      24.361   3.384  52.268  1.00  0.00    +0.013 C 
ATOM     16  C   UNL     1      24.371   3.165  50.757  1.00  0.00    +0.001 C 
BRANCH  13  17
ATOM     17  C   UNL     1      25.281   1.184  53.114  1.00  0.00    +0.099 A 
ATOM     18  N   UNL     1      25.260  -0.093  52.800  1.00  0.00    -0.241 NA
ATOM     19  S   UNL     1      26.800   1.783  53.657  1.00  0.00    -0.118 S 
ATOM     20  C   UNL     1      26.526  -0.642  52.942  1.00  0.00    +0.082 A 
ATOM     21  C   UNL     1      27.507   0.235  53.406  1.00  0.00    +0.055 A 
ATOM     22  C   UNL     1      26.882  -1.978  52.669  1.00  0.00    +0.030 A 
ATOM     23  C   UNL     1      28.836  -0.176  53.605  1.00  0.00    +0.021 A 
ATOM     24  C   UNL     1      28.203  -2.398  52.863  1.00  0.00    +0.002 A 
ATOM     25  C   UNL     1      29.166  -1.505  53.325  1.00  0.00    +0.002 A 
ENDBRANCH  13  17
ENDBRANCH  10  11
ENDBRANCH   9  10
ENDBRANCH   1   9
TORSDOF 7
ENDMDL
MODEL 5
REMARK VINA RESULT:    -6.105      2.675      5.749
REMARK INTER + INTRA:          -9.297
REMARK INTER:                  -8.399
REMARK INTRA:                  -0.898
REMARK UNBOUND:                -0.872
REMARK SMILES C[N+](C)(C)C[C@H](O)CO[C@H]1CCCC[C@@H]1c1nc2ccccc2s1
REMARK SMILES IDX 6 1 5 2 2 3 1 4 3 5 4 6 7 7 8 9 9 10 10 11 11 12 15 13 12 14
REMARK SMILES IDX 14 15 13 16 16 17 17 18 24 19 18 20 23 21 19 22 22 23 20 24
REMARK SMILES IDX 21 25
REMARK H PARENT 7 8
ROOT
ATOM      1  C   UNL     1      21.197   1.445  49.729  1.00  0.00    +0.195 C 
ENDROOT
BRANCH   1   2
ATOM      2  C   UNL     1      20.767   2.897  49.401  1.00  0.00    +0.297 C 
BRANCH   2   3
ATOM      3  N   UNL     1      21.845   3.986  49.686  1.00  0.00    -0.329 N 
ATOM      4  C   UNL     1      22.173   4.061  51.169  1.00  0.00    +0.334 C 
ATOM      5  C   UNL     1      23.120   3.735  48.888  1.00  0.00    +0.334 C 
ATOM      6  C   UNL     1      21.262   5.331  49.248  1.00  0.00    +0.334 C 
ENDBRANCH   2   3
ENDBRANCH   1   2
BRANCH   1   7
ATOM      7  O   UNL     1      21.285   0.672  48.529  1.00  0.00    -0.385 OA
ATOM      8  H   UNL     1      22.170   0.813  48.137  1.00  0.00    +0.211 HD
ENDBRANCH   1   7
BRANCH   1   9
ATOM      9  C   UNL     1      20.167   0.807  50.679  1.00  0.00    +0.198 C 
BRANCH   9  10
ATOM     10  O   UNL     1      20.806  -0.087  51.584  1.00  0.00    -0.375 OA
BRANCH  10  11
ATOM     11  C   UNL     1      21.945   0.483  52.268  1.00  0.00    +0.128 C 
ATOM     12  C   UNL     1      21.385   1.267  53.465  1.00  0.00    +0.033 C 
ATOM     13  C   UNL     1      22.925  -0.645  52.673  1.00  0.00    +0.078 C 
ATOM     14  C   UNL     1      20.836   0.361  54.562  1.00  0.00    +0.003 C 
ATOM     15  C   UNL     1      22.370  -1.495  53.830  1.00  0.00    +0.013 C 
ATOM     16  C   UNL     1      21.874  -0.660  55.008  1.00  0.00    +0.001 C 
BRANCH  13  17
ATOM     17  C   UNL     1      24.299  -0.096  52.981  1.00  0.00    +0.099 A 
ATOM     18  N   UNL     1      25.138  -0.626  53.844  1.00  0.00    -0.241 NA
ATOM     19  S   UNL     1      24.841   1.350  52.221  1.00  0.00    -0.118 S 
ATOM     20  C   UNL     1      26.312   0.112  53.886  1.00  0.00    +0.082 A 
ATOM     21  C   UNL     1      26.337   1.239  53.063  1.00  0.00    +0.055 A 
ATOM     22  C   UNL     1      27.442  -0.177  54.678  1.00  0.00    +0.030 A 
ATOM     23  C   UNL     1      27.454   2.089  53.002  1.00  0.00    +0.021 A 
ATOM     24  C   UNL     1      28.560   0.663  54.624  1.00  0.00    +0.002 A 
ATOM     25  C   UNL     1      28.563   1.780  53.795  1.00  0.00    +0.002 A 
ENDBRANCH  13  17
ENDBRANCH  10  11
ENDBRANCH   9  10
ENDBRANCH   1   9
TORSDOF 7
ENDMDL
MODEL 6
REMARK VINA RESULT:    -6.055      3.401      7.243
REMARK INTER + INTRA:          -9.227
REMARK INTER:                  -8.449
REMARK INTRA:                  -0.778
REMARK UNBOUND:                -0.872
REMARK SMILES C[N+](C)(C)C[C@H](O)CO[C@H]1CCCC[C@@H]1c1nc2ccccc2s1
REMARK SMILES IDX 6 1 5 2 2 3 1 4 3 5 4 6 7 7 8 9 9 10 10 11 11 12 15 13 12 14
REMARK SMILES IDX 14 15 13 16 16 17 17 18 24 19 18 20 23 21 19 22 22 23 20 24
REMARK SMILES IDX 21 25
REMARK H PARENT 7 8
ROOT
ATOM      1  C   UNL     1      23.533   7.341  50.926  1.00  0.00    +0.195 C 
ENDROOT
BRANCH   1   2
ATOM      2  C   UNL     1      24.251   7.008  49.595  1.00  0.00    +0.297 C 
BRANCH   2   3
ATOM      3  N   UNL     1      24.860   8.232  48.847  1.00  0.00    -0.329 N 
ATOM      4  C   UNL     1      23.770   9.140  48.301  1.00  0.00    +0.334 C 
ATOM      5  C   UNL     1      25.796   9.031  49.747  1.00  0.00    +0.334 C 
ATOM      6  C   UNL     1      25.674   7.688  47.670  1.00  0.00    +0.334 C 
ENDBRANCH   2   3
ENDBRANCH   1   2
BRANCH   1   7
ATOM      7  O   UNL     1      24.284   6.837  52.034  1.00  0.00    -0.385 OA
ATOM      8  H   UNL     1      25.171   7.247  52.016  1.00  0.00    +0.211 HD
ENDBRANCH   1   7
BRANCH   1   9
ATOM      9  C   UNL     1      22.129   6.710  50.924  1.00  0.00    +0.198 C 
BRANCH   9  10
ATOM     10  O   UNL     1      22.047   5.673  49.951  1.00  0.00    -0.375 OA
BRANCH  10  11
ATOM     11  C   UNL     1      21.782   4.366  50.506  1.00  0.00    +0.128 C 
ATOM     12  C   UNL     1      20.858   3.649  49.509  1.00  0.00    +0.033 C 
ATOM     13  C   UNL     1      23.120   3.625  50.750  1.00  0.00    +0.078 C 
ATOM     14  C   UNL     1      21.571   3.256  48.219  1.00  0.00    +0.003 C 
ATOM     15  C   UNL     1      23.775   3.181  49.430  1.00  0.00    +0.013 C 
ATOM     16  C   UNL     1      22.819   2.433  48.504  1.00  0.00    +0.001 C 
BRANCH  13  17
ATOM     17  C   UNL     1      22.943   2.473  51.712  1.00  0.00    +0.099 A 
ATOM     18  N   UNL     1      21.826   2.198  52.350  1.00  0.00    -0.241 NA
ATOM     19  S   UNL     1      24.273   1.443  52.079  1.00  0.00    -0.118 S 
ATOM     20  C   UNL     1      21.994   1.076  53.148  1.00  0.00    +0.082 A 
ATOM     21  C   UNL     1      23.274   0.520  53.132  1.00  0.00    +0.055 A 
ATOM     22  C   UNL     1      21.003   0.478  53.952  1.00  0.00    +0.030 A 
ATOM     23  C   UNL     1      23.600  -0.616  53.893  1.00  0.00    +0.021 A 
ATOM     24  C   UNL     1      21.316  -0.654  54.713  1.00  0.00    +0.002 A 
ATOM     25  C   UNL     1      22.599  -1.192  54.682  1.00  0.00    +0.002 A 
ENDBRANCH  13  17
ENDBRANCH  10  11
ENDBRANCH   9  10
ENDBRANCH   1   9
TORSDOF 7
ENDMDL
MODEL 7
REMARK VINA RESULT:    -5.823      3.439      6.803
REMARK INTER + INTRA:          -8.907
REMARK INTER:                  -8.243
REMARK INTRA:                  -0.665
REMARK UNBOUND:                -0.872
REMARK SMILES C[N+](C)(C)C[C@H](O)CO[C@H]1CCCC[C@@H]1c1nc2ccccc2s1
REMARK SMILES IDX 6 1 5 2 2 3 1 4 3 5 4 6 7 7 8 9 9 10 10 11 11 12 15 13 12 14
REMARK SMILES IDX 14 15 13 16 16 17 17 18 24 19 18 20 23 21 19 22 22 23 20 24
REMARK SMILES IDX 21 25
REMARK H PARENT 7 8
ROOT
ATOM      1  C   UNL     1      18.577   0.636  50.995  1.00  0.00    +0.195 C 
ENDROOT
BRANCH   1   2
ATOM      2  C   UNL     1      17.988   1.971  51.514  1.00  0.00    +0.297 C 
BRANCH   2   3
ATOM      3  N   UNL     1      16.698   2.454  50.783  1.00  0.00    -0.329 N 
ATOM      4  C   UNL     1      16.643   1.924  49.359  1.00  0.00    +0.334 C 
ATOM      5  C   UNL     1      15.438   2.042  51.536  1.00  0.00    +0.334 C 
ATOM      6  C   UNL     1      16.748   3.983  50.731  1.00  0.00    +0.334 C 
ENDBRANCH   2   3
ENDBRANCH   1   2
BRANCH   1   7
ATOM      7  O   UNL     1      18.376  -0.402  51.958  1.00  0.00    -0.385 OA
ATOM      8  H   UNL     1      17.447  -0.366  52.259  1.00  0.00    +0.211 HD
ENDBRANCH   1   7
BRANCH   1   9
ATOM      9  C   UNL     1      20.083   0.810  50.729  1.00  0.00    +0.198 C 
BRANCH   9  10
ATOM     10  O   UNL     1      20.837  -0.148  51.467  1.00  0.00    -0.375 OA
BRANCH  10  11
ATOM     11  C   UNL     1      21.969   0.411  52.171  1.00  0.00    +0.128 C 
ATOM     12  C   UNL     1      21.394   1.343  53.249  1.00  0.00    +0.033 C 
ATOM     13  C   UNL     1      22.839  -0.733  52.745  1.00  0.00    +0.078 C 
ATOM     14  C   UNL     1      20.715   0.585  54.386  1.00  0.00    +0.003 C 
ATOM     15  C   UNL     1      22.156  -1.429  53.935  1.00  0.00    +0.013 C 
ATOM     16  C   UNL     1      21.649  -0.453  54.994  1.00  0.00    +0.001 C 
BRANCH  13  17
ATOM     17  C   UNL     1      24.227  -0.247  53.093  1.00  0.00    +0.099 A 
ATOM     18  N   UNL     1      24.911   0.627  52.387  1.00  0.00    -0.241 NA
ATOM     19  S   UNL     1      25.046  -0.882  54.468  1.00  0.00    -0.118 S 
ATOM     20  C   UNL     1      26.142   0.864  52.979  1.00  0.00    +0.082 A 
ATOM     21  C   UNL     1      26.400   0.124  54.134  1.00  0.00    +0.055 A 
ATOM     22  C   UNL     1      27.125   1.761  52.513  1.00  0.00    +0.030 A 
ATOM     23  C   UNL     1      27.607   0.250  54.842  1.00  0.00    +0.021 A 
ATOM     24  C   UNL     1      28.330   1.896  53.211  1.00  0.00    +0.002 A 
ATOM     25  C   UNL     1      28.565   1.148  54.362  1.00  0.00    +0.002 A 
ENDBRANCH  13  17
ENDBRANCH  10  11
ENDBRANCH   9  10
ENDBRANCH   1   9
TORSDOF 7
ENDMDL
MODEL 8
REMARK VINA RESULT:    -5.737      3.872      7.200
REMARK INTER + INTRA:          -8.788
REMARK INTER:                  -8.187
REMARK INTRA:                  -0.601
REMARK UNBOUND:                -0.872
REMARK SMILES C[N+](C)(C)C[C@H](O)CO[C@H]1CCCC[C@@H]1c1nc2ccccc2s1
REMARK SMILES IDX 6 1 5 2 2 3 1 4 3 5 4 6 7 7 8 9 9 10 10 11 11 12 15 13 12 14
REMARK SMILES IDX 14 15 13 16 16 17 17 18 24 19 18 20 23 21 19 22 22 23 20 24
REMARK SMILES IDX 21 25
REMARK H PARENT 7 8
ROOT
ATOM      1  C   UNL     1      17.776   4.003  51.336  1.00  0.00    +0.195 C 
ENDROOT
BRANCH   1   2
ATOM      2  C   UNL     1      16.865   2.772  51.106  1.00  0.00    +0.297 C 
BRANCH   2   3
ATOM      3  N   UNL     1      15.450   2.865  51.754  1.00  0.00    -0.329 N 
ATOM      4  C   UNL     1      15.047   1.542  52.385  1.00  0.00    +0.334 C 
ATOM      5  C   UNL     1      15.382   3.976  52.795  1.00  0.00    +0.334 C 
ATOM      6  C   UNL     1      14.457   3.192  50.636  1.00  0.00    +0.334 C 
ENDBRANCH   2   3
ENDBRANCH   1   2
BRANCH   1   7
ATOM      7  O   UNL     1      17.704   4.889  50.215  1.00  0.00    -0.385 OA
ATOM      8  H   UNL     1      18.449   5.519  50.273  1.00  0.00    +0.211 HD
ENDBRANCH   1   7
BRANCH   1   9
ATOM      9  C   UNL     1      19.229   3.537  51.534  1.00  0.00    +0.198 C 
BRANCH   9  10
ATOM     10  O   UNL     1      19.722   2.914  50.350  1.00  0.00    -0.375 OA
BRANCH  10  11
ATOM     11  C   UNL     1      20.827   2.012  50.578  1.00  0.00    +0.128 C 
ATOM     12  C   UNL     1      20.914   1.109  49.337  1.00  0.00    +0.033 C 
ATOM     13  C   UNL     1      22.117   2.827  50.838  1.00  0.00    +0.078 C 
ATOM     14  C   UNL     1      21.417   1.848  48.101  1.00  0.00    +0.003 C 
ATOM     15  C   UNL     1      22.637   3.500  49.556  1.00  0.00    +0.013 C 
ATOM     16  C   UNL     1      22.745   2.541  48.373  1.00  0.00    +0.001 C 
BRANCH  13  17
ATOM     17  C   UNL     1      23.178   1.980  51.504  1.00  0.00    +0.099 A 
ATOM     18  N   UNL     1      24.457   2.008  51.197  1.00  0.00    -0.241 NA
ATOM     19  S   UNL     1      22.738   0.843  52.719  1.00  0.00    -0.118 S 
ATOM     20  C   UNL     1      25.161   1.119  51.995  1.00  0.00    +0.082 A 
ATOM     21  C   UNL     1      24.387   0.385  52.895  1.00  0.00    +0.055 A 
ATOM     22  C   UNL     1      26.554   0.904  51.963  1.00  0.00    +0.030 A 
ATOM     23  C   UNL     1      24.957  -0.559  53.766  1.00  0.00    +0.021 A 
ATOM     24  C   UNL     1      27.132  -0.033  52.827  1.00  0.00    +0.002 A 
ATOM     25  C   UNL     1      26.340  -0.753  53.717  1.00  0.00    +0.002 A 
ENDBRANCH  13  17
ENDBRANCH  10  11
ENDBRANCH   9  10
ENDBRANCH   1   9
TORSDOF 7
ENDMDL
MODEL 9
REMARK VINA RESULT:    -5.667      4.965      8.234
REMARK INTER + INTRA:          -8.692
REMARK INTER:                  -8.149
REMARK INTRA:                  -0.543
REMARK UNBOUND:                -0.872
REMARK SMILES C[N+](C)(C)C[C@H](O)CO[C@H]1CCCC[C@@H]1c1nc2ccccc2s1
REMARK SMILES IDX 6 1 5 2 2 3 1 4 3 5 4 6 7 7 8 9 9 10 10 11 11 12 15 13 12 14
REMARK SMILES IDX 14 15 13 16 16 17 17 18 24 19 18 20 23 21 19 22 22 23 20 24
REMARK SMILES IDX 21 25
REMARK H PARENT 7 8
ROOT
ATOM      1  C   UNL     1      15.659   3.563  52.458  1.00  0.00    +0.195 C 
ENDROOT
BRANCH   1   2
ATOM      2  C   UNL     1      14.244   3.707  51.845  1.00  0.00    +0.297 C 
BRANCH   2   3
ATOM      3  N   UNL     1      13.115   2.940  52.599  1.00  0.00    -0.329 N 
ATOM      4  C   UNL     1      13.641   1.650  53.208  1.00  0.00    +0.334 C 
ATOM      5  C   UNL     1      12.478   3.801  53.683  1.00  0.00    +0.334 C 
ATOM      6  C   UNL     1      12.038   2.588  51.571  1.00  0.00    +0.334 C 
ENDBRANCH   2   3
ENDBRANCH   1   2
BRANCH   1   7
ATOM      7  O   UNL     1      16.006   4.745  53.185  1.00  0.00    -0.385 OA
ATOM      8  H   UNL     1      15.330   5.427  53.004  1.00  0.00    +0.211 HD
ENDBRANCH   1   7
BRANCH   1   9
ATOM      9  C   UNL     1      16.684   3.329  51.333  1.00  0.00    +0.198 C 
BRANCH   9  10
ATOM     10  O   UNL     1      17.950   3.879  51.685  1.00  0.00    -0.375 OA
BRANCH  10  11
ATOM     11  C   UNL     1      19.043   2.938  51.604  1.00  0.00    +0.128 C 
ATOM     12  C   UNL     1      19.083   2.443  50.149  1.00  0.00    +0.033 C 
ATOM     13  C   UNL     1      20.354   3.624  52.058  1.00  0.00    +0.078 C 
ATOM     14  C   UNL     1      19.571   3.510  49.174  1.00  0.00    +0.003 C 
ATOM     15  C   UNL     1      20.856   4.642  51.018  1.00  0.00    +0.013 C 
ATOM     16  C   UNL     1      20.918   4.076  49.601  1.00  0.00    +0.001 C 
BRANCH  13  17
ATOM     17  C   UNL     1      21.414   2.607  52.412  1.00  0.00    +0.099 A 
ATOM     18  N   UNL     1      22.705   2.779  52.231  1.00  0.00    -0.241 NA
ATOM     19  S   UNL     1      20.960   1.075  53.053  1.00  0.00    -0.118 S 
ATOM     20  C   UNL     1      23.404   1.663  52.666  1.00  0.00    +0.082 A 
ATOM     21  C   UNL     1      22.615   0.619  53.151  1.00  0.00    +0.055 A 
ATOM     22  C   UNL     1      24.805   1.507  52.650  1.00  0.00    +0.030 A 
ATOM     23  C   UNL     1      23.179  -0.579  53.622  1.00  0.00    +0.021 A 
ATOM     24  C   UNL     1      25.376   0.318  53.118  1.00  0.00    +0.002 A 
ATOM     25  C   UNL     1      24.571  -0.710  53.598  1.00  0.00    +0.002 A 
ENDBRANCH  13  17
ENDBRANCH  10  11
ENDBRANCH   9  10
ENDBRANCH   1   9
TORSDOF 7
ENDMDL
