MODEL 1
REMARK VINA RESULT:    -6.354      0.000      0.000
REMARK INTER + INTRA:          -9.733
REMARK INTER:                  -8.768
REMARK INTRA:                  -0.965
REMARK UNBOUND:                -0.965
REMARK SMILES C[N+](C)(C)C[C@H](O)CO[C@H]1CCCN1c1ccc(C#N)cc1F
REMARK SMILES IDX 8 1 6 2 5 3 2 4 1 5 3 6 4 7 7 8 9 10 10 11 11 12 14 13 12 14
REMARK SMILES IDX 13 15 15 16 16 17 22 18 17 19 21 20 18 21 19 22 20 23 23 24
REMARK H PARENT 7 9
ROOT
ATOM      1  C   UNL     1      24.492   3.155  51.104  1.00  0.00    +0.200 C 
ENDROOT
BRANCH   1   2
ATOM      2  C   UNL     1      23.421   3.939  51.879  1.00  0.00    +0.195 C 
BRANCH   2   3
ATOM      3  C   UNL     1      22.723   4.947  50.930  1.00  0.00    +0.297 C 
BRANCH   3   4
ATOM      4  N   UNL     1      21.266   4.574  50.523  1.00  0.00    -0.329 N 
ATOM      5  C   UNL     1      21.259   3.581  49.372  1.00  0.00    +0.334 C 
ATOM      6  C   UNL     1      20.483   4.004  51.699  1.00  0.00    +0.334 C 
ATOM      7  C   UNL     1      20.575   5.858  50.060  1.00  0.00    +0.334 C 
ENDBRANCH   3   4
ENDBRANCH   2   3
BRANCH   2   8
ATOM      8  O   UNL     1      24.027   4.628  52.974  1.00  0.00    -0.385 OA
ATOM      9  H   UNL     1      23.872   5.586  52.855  1.00  0.00    +0.211 HD
ENDBRANCH   2   8
ENDBRANCH   1   2
BRANCH   1  10
ATOM     10  O   UNL     1      24.207   1.773  51.235  1.00  0.00    -0.355 OA
BRANCH  10  11
ATOM     11  C   UNL     1      23.206   1.485  52.203  1.00  0.00    +0.215 C 
ATOM     12  C   UNL     1      22.076   0.654  51.595  1.00  0.00    +0.057 C 
ATOM     13  N   UNL     1      23.719   0.674  53.327  1.00  0.00    -0.344 N 
ATOM     14  C   UNL     1      21.551  -0.116  52.789  1.00  0.00    +0.026 C 
ATOM     15  C   UNL     1      22.837  -0.495  53.514  1.00  0.00    +0.119 C 
BRANCH  13  16
ATOM     16  C   UNL     1      25.087   0.389  53.339  1.00  0.00    +0.075 A 
ATOM     17  C   UNL     1      25.497  -0.872  52.886  1.00  0.00    +0.030 A 
ATOM     18  C   UNL     1      26.078   1.264  53.818  1.00  0.00    +0.147 A 
ATOM     19  C   UNL     1      26.843  -1.253  52.925  1.00  0.00    +0.022 A 
ATOM     20  C   UNL     1      27.421   0.899  53.860  1.00  0.00    +0.061 A 
ATOM     21  C   UNL     1      27.804  -0.369  53.421  1.00  0.00    +0.055 A 
ATOM     22  C   UNL     1      29.171  -0.780  53.543  1.00  0.00    +0.099 C 
ATOM     23  N   UNL     1      30.266  -1.118  53.725  1.00  0.00    -0.192 NA
ATOM     24  F   UNL     1      25.740   2.470  54.300  1.00  0.00    -0.205 F 
ENDBRANCH  13  16
ENDBRANCH  10  11
ENDBRANCH   1  10
TORSDOF 7
ENDMDL
MODEL 2
REMARK VINA RESULT:    -6.279      1.933      4.795
REMARK INTER + INTRA:          -9.629
REMARK INTER:                  -8.838
REMARK INTRA:                  -0.791
REMARK UNBOUND:                -0.965
REMARK SMILES C[N+](C)(C)C[C@H](O)CO[C@H]1CCCN1c1ccc(C#N)cc1F
REMARK SMILES IDX 8 1 6 2 5 3 2 4 1 5 3 6 4 7 7 8 9 10 10 11 11 12 14 13 12 14
REMARK SMILES IDX 13 15 15 16 16 17 22 18 17 19 21 20 18 21 19 22 20 23 23 24
REMARK H PARENT 7 9
ROOT
ATOM      1  C   UNL     1      24.261   3.524  52.198  1.00  0.00    +0.200 C 
ENDROOT
BRANCH   1   2
ATOM      2  C   UNL     1      23.230   4.581  52.623  1.00  0.00    +0.195 C 
BRANCH   2   3
ATOM      3  C   UNL     1      22.711   5.338  51.373  1.00  0.00    +0.297 C 
BRANCH   3   4
ATOM      4  N   UNL     1      21.412   4.757  50.739  1.00  0.00    -0.329 N 
ATOM      5  C   UNL     1      20.638   3.924  51.747  1.00  0.00    +0.334 C 
ATOM      6  C   UNL     1      20.517   5.858  50.184  1.00  0.00    +0.334 C 
ATOM      7  C   UNL     1      21.833   3.849  49.582  1.00  0.00    +0.334 C 
ENDBRANCH   3   4
ENDBRANCH   2   3
BRANCH   2   8
ATOM      8  O   UNL     1      23.829   5.497  53.542  1.00  0.00    -0.385 OA
ATOM      9  H   UNL     1      24.617   5.068  53.930  1.00  0.00    +0.211 HD
ENDBRANCH   2   8
ENDBRANCH   1   2
BRANCH   1  10
ATOM     10  O   UNL     1      24.218   2.465  53.138  1.00  0.00    -0.355 OA
BRANCH  10  11
ATOM     11  C   UNL     1      25.210   1.469  52.923  1.00  0.00    +0.215 C 
ATOM     12  C   UNL     1      26.242   1.470  54.051  1.00  0.00    +0.057 C 
ATOM     13  N   UNL     1      24.650   0.102  52.913  1.00  0.00    -0.344 N 
ATOM     14  C   UNL     1      26.721   0.032  54.062  1.00  0.00    +0.026 C 
ATOM     15  C   UNL     1      25.422  -0.737  53.850  1.00  0.00    +0.119 C 
BRANCH  13  16
ATOM     16  C   UNL     1      23.261  -0.023  53.017  1.00  0.00    +0.075 A 
ATOM     17  C   UNL     1      22.741  -0.594  54.186  1.00  0.00    +0.030 A 
ATOM     18  C   UNL     1      22.352   0.343  52.008  1.00  0.00    +0.147 A 
ATOM     19  C   UNL     1      21.366  -0.808  54.336  1.00  0.00    +0.022 A 
ATOM     20  C   UNL     1      20.982   0.138  52.146  1.00  0.00    +0.061 A 
ATOM     21  C   UNL     1      20.488  -0.449  53.311  1.00  0.00    +0.055 A 
ATOM     22  C   UNL     1      19.090  -0.740  53.421  1.00  0.00    +0.099 C 
ATOM     23  N   UNL     1      17.969  -1.038  53.454  1.00  0.00    -0.192 NA
ATOM     24  F   UNL     1      22.797   0.860  50.851  1.00  0.00    -0.205 F 
ENDBRANCH  13  16
ENDBRANCH  10  11
ENDBRANCH   1  10
TORSDOF 7
ENDMDL
MODEL 3
REMARK VINA RESULT:    -6.271      2.048      2.668
REMARK INTER + INTRA:          -9.618
REMARK INTER:                  -8.896
REMARK INTRA:                  -0.722
REMARK UNBOUND:                -0.965
REMARK SMILES C[N+](C)(C)C[C@H](O)CO[C@H]1CCCN1c1ccc(C#N)cc1F
REMARK SMILES IDX 8 1 6 2 5 3 2 4 1 5 3 6 4 7 7 8 9 10 10 11 11 12 14 13 12 14
REMARK SMILES IDX 13 15 15 16 16 17 22 18 17 19 21 20 18 21 19 22 20 23 23 24
REMARK H PARENT 7 9
ROOT
ATOM      1  C   UNL     1      24.017   3.163  50.449  1.00  0.00    +0.200 C 
ENDROOT
BRANCH   1   2
ATOM      2  C   UNL     1      25.124   4.228  50.501  1.00  0.00    +0.195 C 
BRANCH   2   3
ATOM      3  C   UNL     1      25.326   4.841  49.091  1.00  0.00    +0.297 C 
BRANCH   3   4
ATOM      4  N   UNL     1      25.654   6.363  49.071  1.00  0.00    -0.329 N 
ATOM      5  C   UNL     1      25.335   7.008  50.410  1.00  0.00    +0.334 C 
ATOM      6  C   UNL     1      27.113   6.618  48.710  1.00  0.00    +0.334 C 
ATOM      7  C   UNL     1      24.773   7.009  48.000  1.00  0.00    +0.334 C 
ENDBRANCH   3   4
ENDBRANCH   2   3
BRANCH   2   8
ATOM      8  O   UNL     1      26.340   3.637  50.963  1.00  0.00    -0.385 OA
ATOM      9  H   UNL     1      26.791   3.229  50.198  1.00  0.00    +0.211 HD
ENDBRANCH   2   8
ENDBRANCH   1   2
BRANCH   1  10
ATOM     10  O   UNL     1      24.370   2.118  51.340  1.00  0.00    -0.355 OA
BRANCH  10  11
ATOM     11  C   UNL     1      23.309   1.714  52.195  1.00  0.00    +0.215 C 
ATOM     12  C   UNL     1      22.210   1.001  51.408  1.00  0.00    +0.057 C 
ATOM     13  N   UNL     1      23.744   0.739  53.218  1.00  0.00    -0.344 N 
ATOM     14  C   UNL     1      21.605   0.077  52.445  1.00  0.00    +0.026 C 
ATOM     15  C   UNL     1      22.840  -0.427  53.181  1.00  0.00    +0.119 C 
BRANCH  13  16
ATOM     16  C   UNL     1      25.106   0.428  53.268  1.00  0.00    +0.075 A 
ATOM     17  C   UNL     1      25.507  -0.833  52.807  1.00  0.00    +0.030 A 
ATOM     18  C   UNL     1      26.097   1.276  53.794  1.00  0.00    +0.147 A 
ATOM     19  C   UNL     1      26.844  -1.239  52.883  1.00  0.00    +0.022 A 
ATOM     20  C   UNL     1      27.431   0.886  53.873  1.00  0.00    +0.061 A 
ATOM     21  C   UNL     1      27.805  -0.381  53.425  1.00  0.00    +0.055 A 
ATOM     22  C   UNL     1      29.159  -0.819  53.583  1.00  0.00    +0.099 C 
ATOM     23  N   UNL     1      30.241  -1.180  53.794  1.00  0.00    -0.192 NA
ATOM     24  F   UNL     1      25.764   2.481  54.286  1.00  0.00    -0.205 F 
ENDBRANCH  13  16
ENDBRANCH  10  11
ENDBRANCH   1  10
TORSDOF 7
ENDMDL
MODEL 4
REMARK VINA RESULT:    -6.135      2.098      5.605
REMARK INTER + INTRA:          -9.431
REMARK INTER:                  -8.323
REMARK INTRA:                  -1.108
REMARK UNBOUND:                -0.965
REMARK SMILES C[N+](C)(C)C[C@H](O)CO[C@H]1CCCN1c1ccc(C#N)cc1F
REMARK SMILES IDX 8 1 6 2 5 3 2 4 1 5 3 6 4 7 7 8 9 10 10 11 11 12 14 13 12 14
REMARK SMILES IDX 13 15 15 16 16 17 22 18 17 19 21 20 18 21 19 22 20 23 23 24
REMARK H PARENT 7 9
ROOT
ATOM      1  C   UNL     1      23.154  -0.893  53.644  1.00  0.00    +0.200 C 
ENDROOT
BRANCH   1   2
ATOM      2  C   UNL     1      21.623  -0.885  53.773  1.00  0.00    +0.195 C 
BRANCH   2   3
ATOM      3  C   UNL     1      21.090   0.558  53.577  1.00  0.00    +0.297 C 
BRANCH   3   4
ATOM      4  N   UNL     1      20.202   0.770  52.315  1.00  0.00    -0.329 N 
ATOM      5  C   UNL     1      19.784   2.225  52.180  1.00  0.00    +0.334 C 
ATOM      6  C   UNL     1      20.914   0.319  51.045  1.00  0.00    +0.334 C 
ATOM      7  C   UNL     1      18.943  -0.082  52.489  1.00  0.00    +0.334 C 
ENDBRANCH   3   4
ENDBRANCH   2   3
BRANCH   2   8
ATOM      8  O   UNL     1      21.245  -1.382  55.058  1.00  0.00    -0.385 OA
ATOM      9  H   UNL     1      21.041  -0.617  55.633  1.00  0.00    +0.211 HD
ENDBRANCH   2   8
ENDBRANCH   1   2
BRANCH   1  10
ATOM     10  O   UNL     1      23.594   0.451  53.541  1.00  0.00    -0.355 OA
BRANCH  10  11
ATOM     11  C   UNL     1      25.009   0.591  53.545  1.00  0.00    +0.215 C 
ATOM     12  C   UNL     1      25.685  -0.655  52.973  1.00  0.00    +0.057 C 
ATOM     13  N   UNL     1      25.471   1.707  52.693  1.00  0.00    -0.344 N 
ATOM     14  C   UNL     1      26.977  -0.100  52.408  1.00  0.00    +0.026 C 
ATOM     15  C   UNL     1      26.512   1.206  51.774  1.00  0.00    +0.119 C 
BRANCH  13  16
ATOM     16  C   UNL     1      24.492   2.505  52.096  1.00  0.00    +0.075 A 
ATOM     17  C   UNL     1      24.126   2.214  50.775  1.00  0.00    +0.030 A 
ATOM     18  C   UNL     1      23.881   3.611  52.713  1.00  0.00    +0.147 A 
ATOM     19  C   UNL     1      23.199   3.007  50.089  1.00  0.00    +0.022 A 
ATOM     20  C   UNL     1      22.954   4.406  52.044  1.00  0.00    +0.061 A 
ATOM     21  C   UNL     1      22.619   4.109  50.723  1.00  0.00    +0.055 A 
ATOM     22  C   UNL     1      21.732   4.974  50.004  1.00  0.00    +0.099 C 
ATOM     23  N   UNL     1      21.076   5.731  49.419  1.00  0.00    -0.192 NA
ATOM     24  F   UNL     1      24.221   3.959  53.965  1.00  0.00    -0.205 F 
ENDBRANCH  13  16
ENDBRANCH  10  11
ENDBRANCH   1  10
TORSDOF 7
ENDMDL
MODEL 5
REMARK VINA RESULT:    -5.985      2.197      2.762
REMARK INTER + INTRA:          -9.224
REMARK INTER:                  -8.359
REMARK INTRA:                  -0.865
REMARK UNBOUND:                -0.965
REMARK SMILES C[N+](C)(C)C[C@H](O)CO[C@H]1CCCN1c1ccc(C#N)cc1F
REMARK SMILES IDX 8 1 6 2 5 3 2 4 1 5 3 6 4 7 7 8 9 10 10 11 11 12 14 13 12 14
REMARK SMILES IDX 13 15 15 16 16 17 22 18 17 19 21 20 18 21 19 22 20 23 23 24
REMARK H PARENT 7 9
ROOT
ATOM      1  C   UNL     1      24.175   3.457  49.277  1.00  0.00    +0.200 C 
ENDROOT
BRANCH   1   2
ATOM      2  C   UNL     1      24.700   4.671  50.058  1.00  0.00    +0.195 C 
BRANCH   2   3
ATOM      3  C   UNL     1      24.765   5.907  49.123  1.00  0.00    +0.297 C 
BRANCH   3   4
ATOM      4  N   UNL     1      23.928   7.135  49.588  1.00  0.00    -0.329 N 
ATOM      5  C   UNL     1      22.853   6.719  50.578  1.00  0.00    +0.334 C 
ATOM      6  C   UNL     1      24.809   8.213  50.207  1.00  0.00    +0.334 C 
ATOM      7  C   UNL     1      23.246   7.721  48.350  1.00  0.00    +0.334 C 
ENDBRANCH   3   4
ENDBRANCH   2   3
BRANCH   2   8
ATOM      8  O   UNL     1      25.996   4.382  50.586  1.00  0.00    -0.385 OA
ATOM      9  H   UNL     1      25.882   3.868  51.410  1.00  0.00    +0.211 HD
ENDBRANCH   2   8
ENDBRANCH   1   2
BRANCH   1  10
ATOM     10  O   UNL     1      23.979   2.395  50.194  1.00  0.00    -0.355 OA
BRANCH  10  11
ATOM     11  C   UNL     1      22.637   2.272  50.647  1.00  0.00    +0.215 C 
ATOM     12  C   UNL     1      21.834   1.339  49.740  1.00  0.00    +0.057 C 
ATOM     13  N   UNL     1      22.545   1.672  51.994  1.00  0.00    -0.344 N 
ATOM     14  C   UNL     1      20.785   0.784  50.681  1.00  0.00    +0.026 C 
ATOM     15  C   UNL     1      21.591   0.547  51.952  1.00  0.00    +0.119 C 
BRANCH  13  16
ATOM     16  C   UNL     1      23.745   1.403  52.660  1.00  0.00    +0.075 A 
ATOM     17  C   UNL     1      24.132   0.064  52.795  1.00  0.00    +0.030 A 
ATOM     18  C   UNL     1      24.567   2.383  53.243  1.00  0.00    +0.147 A 
ATOM     19  C   UNL     1      25.288  -0.287  53.501  1.00  0.00    +0.022 A 
ATOM     20  C   UNL     1      25.722   2.048  53.946  1.00  0.00    +0.061 A 
ATOM     21  C   UNL     1      26.078   0.706  54.085  1.00  0.00    +0.055 A 
ATOM     22  C   UNL     1      27.217   0.353  54.879  1.00  0.00    +0.099 C 
ATOM     23  N   UNL     1      28.093   0.088  55.591  1.00  0.00    -0.192 NA
ATOM     24  F   UNL     1      24.226   3.680  53.178  1.00  0.00    -0.205 F 
ENDBRANCH  13  16
ENDBRANCH  10  11
ENDBRANCH   1  10
TORSDOF 7
ENDMDL
MODEL 6
REMARK VINA RESULT:    -5.956      2.710      5.426
REMARK INTER + INTRA:          -9.183
REMARK INTER:                  -8.356
REMARK INTRA:                  -0.828
REMARK UNBOUND:                -0.965
REMARK SMILES C[N+](C)(C)C[C@H](O)CO[C@H]1CCCN1c1ccc(C#N)cc1F
REMARK SMILES IDX 8 1 6 2 5 3 2 4 1 5 3 6 4 7 7 8 9 10 10 11 11 12 14 13 12 14
REMARK SMILES IDX 13 15 15 16 16 17 22 18 17 19 21 20 18 21 19 22 20 23 23 24
REMARK H PARENT 7 9
ROOT
ATOM      1  C   UNL     1      23.413   4.386  52.634  1.00  0.00    +0.200 C 
ENDROOT
BRANCH   1   2
ATOM      2  C   UNL     1      23.091   5.246  51.402  1.00  0.00    +0.195 C 
BRANCH   2   3
ATOM      3  C   UNL     1      24.381   5.946  50.902  1.00  0.00    +0.297 C 
BRANCH   3   4
ATOM      4  N   UNL     1      24.861   5.516  49.484  1.00  0.00    -0.329 N 
ATOM      5  C   UNL     1      25.588   6.654  48.785  1.00  0.00    +0.334 C 
ATOM      6  C   UNL     1      25.763   4.290  49.545  1.00  0.00    +0.334 C 
ATOM      7  C   UNL     1      23.618   5.160  48.666  1.00  0.00    +0.334 C 
ENDBRANCH   3   4
ENDBRANCH   2   3
BRANCH   2   8
ATOM      8  O   UNL     1      22.099   6.218  51.738  1.00  0.00    -0.385 OA
ATOM      9  H   UNL     1      21.516   5.834  52.422  1.00  0.00    +0.211 HD
ENDBRANCH   2   8
ENDBRANCH   1   2
BRANCH   1  10
ATOM     10  O   UNL     1      23.076   3.043  52.333  1.00  0.00    -0.355 OA
BRANCH  10  11
ATOM     11  C   UNL     1      24.200   2.176  52.252  1.00  0.00    +0.215 C 
ATOM     12  C   UNL     1      25.221   2.497  53.345  1.00  0.00    +0.057 C 
ATOM     13  N   UNL     1      23.841   0.758  52.466  1.00  0.00    -0.344 N 
ATOM     14  C   UNL     1      25.900   1.161  53.567  1.00  0.00    +0.026 C 
ATOM     15  C   UNL     1      24.724   0.193  53.504  1.00  0.00    +0.119 C 
BRANCH  13  16
ATOM     16  C   UNL     1      22.485   0.457  52.617  1.00  0.00    +0.075 A 
ATOM     17  C   UNL     1      22.028   0.117  53.897  1.00  0.00    +0.030 A 
ATOM     18  C   UNL     1      21.554   0.426  51.563  1.00  0.00    +0.147 A 
ATOM     19  C   UNL     1      20.698  -0.257  54.115  1.00  0.00    +0.022 A 
ATOM     20  C   UNL     1      20.227   0.059  51.766  1.00  0.00    +0.061 A 
ATOM     21  C   UNL     1      19.799  -0.294  53.046  1.00  0.00    +0.055 A 
ATOM     22  C   UNL     1      18.457  -0.754  53.244  1.00  0.00    +0.099 C 
ATOM     23  N   UNL     1      17.392  -1.199  53.365  1.00  0.00    -0.192 NA
ATOM     24  F   UNL     1      21.944   0.705  50.308  1.00  0.00    -0.205 F 
ENDBRANCH  13  16
ENDBRANCH  10  11
ENDBRANCH   1  10
TORSDOF 7
ENDMDL
MODEL 7
REMARK VINA RESULT:    -5.844      2.373      6.978
REMARK INTER + INTRA:          -9.029
REMARK INTER:                  -8.301
REMARK INTRA:                  -0.728
REMARK UNBOUND:                -0.965
REMARK SMILES C[N+](C)(C)C[C@H](O)CO[C@H]1CCCN1c1ccc(C#N)cc1F
REMARK SMILES IDX 8 1 6 2 5 3 2 4 1 5 3 6 4 7 7 8 9 10 10 11 11 12 14 13 12 14
REMARK SMILES IDX 13 15 15 16 16 17 22 18 17 19 21 20 18 21 19 22 20 23 23 24
REMARK H PARENT 7 9
ROOT
ATOM      1  C   UNL     1      25.516   2.029  53.541  1.00  0.00    +0.200 C 
ENDROOT
BRANCH   1   2
ATOM      2  C   UNL     1      25.784   0.546  53.841  1.00  0.00    +0.195 C 
BRANCH   2   3
ATOM      3  C   UNL     1      27.063   0.086  53.094  1.00  0.00    +0.297 C 
BRANCH   3   4
ATOM      4  N   UNL     1      28.384   0.198  53.911  1.00  0.00    -0.329 N 
ATOM      5  C   UNL     1      29.105   1.501  53.607  1.00  0.00    +0.334 C 
ATOM      6  C   UNL     1      28.129   0.088  55.409  1.00  0.00    +0.334 C 
ATOM      7  C   UNL     1      29.286  -0.965  53.490  1.00  0.00    +0.334 C 
ENDBRANCH   3   4
ENDBRANCH   2   3
BRANCH   2   8
ATOM      8  O   UNL     1      24.663  -0.239  53.431  1.00  0.00    -0.385 OA
ATOM      9  H   UNL     1      23.974  -0.171  54.122  1.00  0.00    +0.211 HD
ENDBRANCH   2   8
ENDBRANCH   1   2
BRANCH   1  10
ATOM     10  O   UNL     1      24.408   2.107  52.660  1.00  0.00    -0.355 OA
BRANCH  10  11
ATOM     11  C   UNL     1      24.510   3.155  51.706  1.00  0.00    +0.215 C 
ATOM     12  C   UNL     1      25.638   2.883  50.710  1.00  0.00    +0.057 C 
ATOM     13  N   UNL     1      23.292   3.292  50.880  1.00  0.00    -0.344 N 
ATOM     14  C   UNL     1      25.167   3.614  49.469  1.00  0.00    +0.026 C 
ATOM     15  C   UNL     1      23.678   3.291  49.456  1.00  0.00    +0.119 C 
BRANCH  13  16
ATOM     16  C   UNL     1      22.207   2.469  51.198  1.00  0.00    +0.075 A 
ATOM     17  C   UNL     1      22.119   1.226  50.557  1.00  0.00    +0.030 A 
ATOM     18  C   UNL     1      21.172   2.823  52.082  1.00  0.00    +0.147 A 
ATOM     19  C   UNL     1      21.030   0.375  50.777  1.00  0.00    +0.022 A 
ATOM     20  C   UNL     1      20.085   1.984  52.312  1.00  0.00    +0.061 A 
ATOM     21  C   UNL     1      20.008   0.759  51.649  1.00  0.00    +0.055 A 
ATOM     22  C   UNL     1      18.851  -0.067  51.817  1.00  0.00    +0.099 C 
ATOM     23  N   UNL     1      17.870  -0.681  51.906  1.00  0.00    -0.192 NA
ATOM     24  F   UNL     1      21.185   4.018  52.695  1.00  0.00    -0.205 F 
ENDBRANCH  13  16
ENDBRANCH  10  11
ENDBRANCH   1  10
TORSDOF 7
ENDMDL
MODEL 8
REMARK VINA RESULT:    -5.613      2.174      6.549
REMARK INTER + INTRA:          -8.710
REMARK INTER:                  -7.914
REMARK INTRA:                  -0.796
REMARK UNBOUND:                -0.965
REMARK SMILES C[N+](C)(C)C[C@H](O)CO[C@H]1CCCN1c1ccc(C#N)cc1F
REMARK SMILES IDX 8 1 6 2 5 3 2 4 1 5 3 6 4 7 7 8 9 10 10 11 11 12 14 13 12 14
REMARK SMILES IDX 13 15 15 16 16 17 22 18 17 19 21 20 18 21 19 22 20 23 23 24
REMARK H PARENT 7 9
ROOT
ATOM      1  C   UNL     1      23.871  -0.444  53.596  1.00  0.00    +0.200 C 
ENDROOT
BRANCH   1   2
ATOM      2  C   UNL     1      25.189   0.078  53.003  1.00  0.00    +0.195 C 
BRANCH   2   3
ATOM      3  C   UNL     1      26.112   0.580  54.143  1.00  0.00    +0.297 C 
BRANCH   3   4
ATOM      4  N   UNL     1      27.639   0.434  53.872  1.00  0.00    -0.329 N 
ATOM      5  C   UNL     1      28.188   1.663  53.166  1.00  0.00    +0.334 C 
ATOM      6  C   UNL     1      28.417   0.189  55.160  1.00  0.00    +0.334 C 
ATOM      7  C   UNL     1      27.830  -0.777  52.956  1.00  0.00    +0.334 C 
ENDBRANCH   3   4
ENDBRANCH   2   3
BRANCH   2   8
ATOM      8  O   UNL     1      24.918   1.137  52.083  1.00  0.00    -0.385 OA
ATOM      9  H   UNL     1      24.125   1.616  52.395  1.00  0.00    +0.211 HD
ENDBRANCH   2   8
ENDBRANCH   1   2
BRANCH   1  10
ATOM     10  O   UNL     1      22.833   0.436  53.201  1.00  0.00    -0.355 OA
BRANCH  10  11
ATOM     11  C   UNL     1      21.678  -0.228  52.704  1.00  0.00    +0.215 C 
ATOM     12  C   UNL     1      20.738  -0.622  53.843  1.00  0.00    +0.057 C 
ATOM     13  N   UNL     1      20.868   0.629  51.814  1.00  0.00    -0.344 N 
ATOM     14  C   UNL     1      19.382  -0.625  53.167  1.00  0.00    +0.026 C 
ATOM     15  C   UNL     1      19.467   0.610  52.278  1.00  0.00    +0.119 C 
BRANCH  13  16
ATOM     16  C   UNL     1      21.373   1.898  51.513  1.00  0.00    +0.075 A 
ATOM     17  C   UNL     1      21.046   2.953  52.375  1.00  0.00    +0.030 A 
ATOM     18  C   UNL     1      22.148   2.197  50.379  1.00  0.00    +0.147 A 
ATOM     19  C   UNL     1      21.462   4.262  52.106  1.00  0.00    +0.022 A 
ATOM     20  C   UNL     1      22.572   3.494  50.101  1.00  0.00    +0.061 A 
ATOM     21  C   UNL     1      22.218   4.533  50.963  1.00  0.00    +0.055 A 
ATOM     22  C   UNL     1      22.579   5.880  50.636  1.00  0.00    +0.099 C 
ATOM     23  N   UNL     1      22.812   6.968  50.309  1.00  0.00    -0.192 NA
ATOM     24  F   UNL     1      22.460   1.232  49.499  1.00  0.00    -0.205 F 
ENDBRANCH  13  16
ENDBRANCH  10  11
ENDBRANCH   1  10
TORSDOF 7
ENDMDL
MODEL 9
REMARK VINA RESULT:    -5.182      3.475      6.502
REMARK INTER + INTRA:          -8.116
REMARK INTER:                  -7.230
REMARK INTRA:                  -0.886
REMARK UNBOUND:                -0.965
REMARK SMILES C[N+](C)(C)C[C@H](O)CO[C@H]1CCCN1c1ccc(C#N)cc1F
REMARK SMILES IDX 8 1 6 2 5 3 2 4 1 5 3 6 4 7 7 8 9 10 10 11 11 12 14 13 12 14
REMARK SMILES IDX 13 15 15 16 16 17 22 18 17 19 21 20 18 21 19 22 20 23 23 24
REMARK H PARENT 7 9
ROOT
ATOM      1  C   UNL     1      22.095   3.838  52.381  1.00  0.00    +0.200 C 
ENDROOT
BRANCH   1   2
ATOM      2  C   UNL     1      22.545   4.888  51.354  1.00  0.00    +0.195 C 
BRANCH   2   3
ATOM      3  C   UNL     1      24.094   4.956  51.321  1.00  0.00    +0.297 C 
BRANCH   3   4
ATOM      4  N   UNL     1      24.753   4.421  50.015  1.00  0.00    -0.329 N 
ATOM      5  C   UNL     1      25.748   3.314  50.320  1.00  0.00    +0.334 C 
ATOM      6  C   UNL     1      23.709   3.918  49.025  1.00  0.00    +0.334 C 
ATOM      7  C   UNL     1      25.506   5.586  49.370  1.00  0.00    +0.334 C 
ENDBRANCH   3   4
ENDBRANCH   2   3
BRANCH   2   8
ATOM      8  O   UNL     1      22.002   6.164  51.699  1.00  0.00    -0.385 OA
ATOM      9  H   UNL     1      21.480   6.489  50.939  1.00  0.00    +0.211 HD
ENDBRANCH   2   8
ENDBRANCH   1   2
BRANCH   1  10
ATOM     10  O   UNL     1      21.648   2.694  51.674  1.00  0.00    -0.355 OA
BRANCH  10  11
ATOM     11  C   UNL     1      22.563   1.607  51.708  1.00  0.00    +0.215 C 
ATOM     12  C   UNL     1      23.338   1.583  53.025  1.00  0.00    +0.057 C 
ATOM     13  N   UNL     1      21.888   0.294  51.635  1.00  0.00    -0.344 N 
ATOM     14  C   UNL     1      23.665   0.113  53.191  1.00  0.00    +0.026 C 
ATOM     15  C   UNL     1      22.369  -0.553  52.744  1.00  0.00    +0.119 C 
BRANCH  13  16
ATOM     16  C   UNL     1      20.502   0.295  51.452  1.00  0.00    +0.075 A 
ATOM     17  C   UNL     1      19.701  -0.126  52.521  1.00  0.00    +0.030 A 
ATOM     18  C   UNL     1      19.858   0.645  50.252  1.00  0.00    +0.147 A 
ATOM     19  C   UNL     1      18.310  -0.211  52.393  1.00  0.00    +0.022 A 
ATOM     20  C   UNL     1      18.475   0.568  50.112  1.00  0.00    +0.061 A 
ATOM     21  C   UNL     1      17.698   0.128  51.184  1.00  0.00    +0.055 A 
ATOM     22  C   UNL     1      16.285  -0.034  51.016  1.00  0.00    +0.099 C 
ATOM     23  N   UNL     1      15.157  -0.233  50.833  1.00  0.00    -0.192 NA
ATOM     24  F   UNL     1      20.579   1.019  49.182  1.00  0.00    -0.205 F 
ENDBRANCH  13  16
ENDBRANCH  10  11
ENDBRANCH   1  10
TORSDOF 7
ENDMDL
