REMARK SMILES Cc1cc(C)c(N(C(=O)c2ccccn2)c2ccc(F)c(Cl)c2)[nH]1
REMARK SMILES IDX 7 1 6 2 2 3 3 4 24 5 4 6 1 7 5 9 8 10 9 11 10 12 11 13 15 14
REMARK SMILES IDX 12 15 14 16 13 17 16 18 17 19 23 20 18 21 21 22 19 23 22 24
REMARK SMILES IDX 20 25
REMARK H PARENT 24 8
ROOT
ATOM      1  N   UNL     1       0.407   0.711  -0.225  1.00  0.00    -0.261 N 
ENDROOT
BRANCH   1   2
ATOM      2  C   UNL     1      -0.693  -0.071   0.162  1.00  0.00    +0.120 A 
ATOM      3  C   UNL     1      -1.984  -1.270   1.581  1.00  0.00    +0.014 A 
ATOM      4  C   UNL     1      -2.641  -1.208   0.373  1.00  0.00    +0.028 A 
ATOM      5  N   UNL     1      -0.796  -0.602   1.430  1.00  0.00    -0.345 N 
ATOM      6  C   UNL     1      -1.828  -0.471  -0.538  1.00  0.00    -0.008 A 
ATOM      7  C   UNL     1      -2.365  -1.907   2.864  1.00  0.00    +0.064 C 
ATOM      8  H   UNL     1      -0.119  -0.466   2.166  1.00  0.00    +0.168 HD
ATOM      9  C   UNL     1      -2.156  -0.249  -1.973  1.00  0.00    +0.048 C 
ENDBRANCH   1   2
BRANCH   1  10
ATOM     10  C   UNL     1       1.704   0.442   0.272  1.00  0.00    +0.282 C 
ATOM     11  O   UNL     1       2.552   1.315   0.482  1.00  0.00    -0.266 OA
BRANCH  10  12
ATOM     12  C   UNL     1       2.116  -0.976   0.545  1.00  0.00    +0.129 A 
ATOM     13  C   UNL     1       3.109  -1.220   1.490  1.00  0.00    +0.034 A 
ATOM     14  N   UNL     1       1.528  -1.962  -0.179  1.00  0.00    -0.251 NA
ATOM     15  C   UNL     1       3.495  -2.537   1.725  1.00  0.00    +0.004 A 
ATOM     16  C   UNL     1       1.921  -3.228   0.073  1.00  0.00    +0.112 A 
ATOM     17  C   UNL     1       2.888  -3.562   1.007  1.00  0.00    +0.020 A 
ENDBRANCH  10  12
ENDBRANCH   1  10
BRANCH   1  18
ATOM     18  C   UNL     1       0.147   1.942  -0.924  1.00  0.00    +0.052 A 
ATOM     19  C   UNL     1       1.137   2.502  -1.752  1.00  0.00    +0.030 A 
ATOM     20  C   UNL     1      -1.072   2.633  -0.796  1.00  0.00    +0.050 A 
ATOM     21  C   UNL     1       0.915   3.698  -2.442  1.00  0.00    +0.043 A 
ATOM     22  C   UNL     1      -1.294   3.828  -1.486  1.00  0.00    +0.078 A 
ATOM     23  C   UNL     1      -0.301   4.353  -2.307  1.00  0.00    +0.141 A 
ATOM     24 Cl   UNL     1      -2.802   4.641  -1.306  1.00  0.00    -0.081 Cl
ATOM     25  F   UNL     1      -0.497   5.498  -2.978  1.00  0.00    -0.205 F 
ENDBRANCH   1  18
TORSDOF 4
