REMARK SMILES Cc1cc(N2CCOCC2)[nH]c1-c1ccccc1
REMARK SMILES IDX 1 1 2 2 3 3 4 4 11 5 12 6 13 8 14 9 18 10 15 11 17 12 16 13
REMARK SMILES IDX 5 14 6 15 10 16 7 17 9 18 8 19
REMARK H PARENT 11 7
ROOT
ATOM      1  C   UNL     1      -1.339  -2.279   2.173  1.00  0.00    +0.047 C 
ATOM      2  C   UNL     1      -0.628  -1.368   1.236  1.00  0.00    -0.023 A 
ATOM      3  C   UNL     1       0.761  -1.419   0.920  1.00  0.00    +0.050 A 
ATOM      4  C   UNL     1       1.049  -0.402   0.035  1.00  0.00    +0.106 A 
ATOM      5  N   UNL     1      -0.134   0.248  -0.205  1.00  0.00    -0.341 N 
ATOM      6  C   UNL     1      -1.167  -0.312   0.514  1.00  0.00    +0.050 A 
ATOM      7  H   UNL     1      -0.250   1.006  -0.858  1.00  0.00    +0.168 HD
ENDROOT
BRANCH   6   8
ATOM      8  C   UNL     1      -2.533   0.197   0.420  1.00  0.00    -0.002 A 
ATOM      9  C   UNL     1      -2.803   1.553   0.643  1.00  0.00    +0.010 A 
ATOM     10  C   UNL     1      -3.591  -0.662   0.097  1.00  0.00    +0.010 A 
ATOM     11  C   UNL     1      -4.109   2.041   0.546  1.00  0.00    +0.001 A 
ATOM     12  C   UNL     1      -4.896  -0.174  -0.002  1.00  0.00    +0.001 A 
ATOM     13  C   UNL     1      -5.154   1.177   0.223  1.00  0.00    +0.000 A 
ENDBRANCH   6   8
BRANCH   4  14
ATOM     14  N   UNL     1       2.209  -0.032  -0.572  1.00  0.00    -0.354 N 
ATOM     15  C   UNL     1       2.404   1.280  -1.207  1.00  0.00    +0.146 C 
ATOM     16  C   UNL     1       3.422  -0.853  -0.432  1.00  0.00    +0.146 C 
ATOM     17  C   UNL     1       3.864   1.739  -1.054  1.00  0.00    +0.181 C 
ATOM     18  C   UNL     1       4.404  -0.537  -1.572  1.00  0.00    +0.181 C 
ATOM     19  O   UNL     1       4.821   0.836  -1.624  1.00  0.00    -0.378 OA
ENDBRANCH   4  14
TORSDOF 2
