REMARK SMILES CN(CC/N=N/Nc1ccc2ncnc(-c3cccc(Cl)c3)c2c1)c1cc(O)ccc1[N+](=O)[O-]
REMARK SMILES IDX 4 1 3 2 2 3 1 4 25 5 26 6 31 7 27 8 30 9 29 10 32 11 33 12
REMARK SMILES IDX 34 13 28 14 5 16 6 17 7 18 8 20 9 21 24 22 10 23 23 24 11 25
REMARK SMILES IDX 15 26 12 27 14 28 13 29 16 30 17 31 22 32 18 33 20 34 19 35
REMARK SMILES IDX 21 36
REMARK H PARENT 28 15 7 19
ROOT
ATOM      1  C   UNL     1       2.108   1.264  -1.396  1.00  0.00    +0.190 C 
ENDROOT
BRANCH   1   2
ATOM      2  C   UNL     1       3.167   0.496  -0.597  1.00  0.00    +0.142 C 
BRANCH   2   3
ATOM      3  N   UNL     1       4.517   0.668  -1.188  1.00  0.00    -0.367 N 
ATOM      4  C   UNL     1       4.781  -0.145  -2.381  1.00  0.00    +0.144 C 
BRANCH   3   5
ATOM      5  C   UNL     1       5.526   0.592  -0.202  1.00  0.00    +0.119 A 
ATOM      6  C   UNL     1       6.008  -0.641   0.272  1.00  0.00    +0.079 A 
ATOM      7  C   UNL     1       6.084   1.753   0.369  1.00  0.00    +0.292 A 
ATOM      8  C   UNL     1       7.008  -0.687   1.248  1.00  0.00    +0.118 A 
ATOM      9  C   UNL     1       7.091   1.713   1.343  1.00  0.00    +0.092 A 
ATOM     10  C   UNL     1       7.553   0.476   1.782  1.00  0.00    +0.053 A 
BRANCH   7  11
ATOM     11  N   UNL     1       5.631   3.058  -0.063  1.00  0.00    +0.064 N 
ATOM     12  O   UNL     1       6.416   3.725  -0.753  1.00  0.00    -0.258 OA
ATOM     13  O   UNL     1       4.523   3.440   0.342  1.00  0.00    -0.258 OA
ENDBRANCH   7  11
BRANCH   8  14
ATOM     14  O   UNL     1       7.489  -1.876   1.715  1.00  0.00    -0.508 OA
ATOM     15  H   UNL     1       7.037  -2.604   1.258  1.00  0.00    +0.293 HD
ENDBRANCH   8  14
ENDBRANCH   3   5
ENDBRANCH   2   3
ENDBRANCH   1   2
BRANCH   1  16
ATOM     16  N   UNL     1       0.796   1.119  -0.742  1.00  0.00    -0.169 NA
ATOM     17  N   UNL     1       0.181   0.112  -1.140  1.00  0.00    -0.075 NA
BRANCH  17  18
ATOM     18  N   UNL     1      -0.971   0.098  -0.447  1.00  0.00    -0.260 N 
ATOM     19  H   UNL     1      -1.218   0.986  -0.021  1.00  0.00    +0.192 HD
BRANCH  18  20
ATOM     20  C   UNL     1      -2.046  -0.672  -0.921  1.00  0.00    +0.059 A 
ATOM     21  C   UNL     1      -1.892  -1.684  -1.868  1.00  0.00    +0.030 A 
ATOM     22  C   UNL     1      -3.312  -0.513  -0.345  1.00  0.00    +0.040 A 
ATOM     23  C   UNL     1      -2.983  -2.466  -2.265  1.00  0.00    +0.031 A 
ATOM     24  C   UNL     1      -4.420  -1.314  -0.737  1.00  0.00    +0.029 A 
ATOM     25  C   UNL     1      -4.248  -2.293  -1.722  1.00  0.00    +0.074 A 
ATOM     26  C   UNL     1      -5.727  -1.217  -0.226  1.00  0.00    +0.082 A 
ATOM     27  N   UNL     1      -5.244  -3.070  -2.159  1.00  0.00    -0.236 NA
ATOM     28  N   UNL     1      -6.750  -1.982  -0.668  1.00  0.00    -0.236 NA
ATOM     29  C   UNL     1      -6.450  -2.874  -1.615  1.00  0.00    +0.223 A 
BRANCH  26  30
ATOM     30  C   UNL     1      -6.117  -0.277   0.837  1.00  0.00    +0.002 A 
ATOM     31  C   UNL     1      -5.633  -0.419   2.150  1.00  0.00    +0.010 A 
ATOM     32  C   UNL     1      -7.006   0.776   0.564  1.00  0.00    +0.030 A 
ATOM     33  C   UNL     1      -6.007   0.477   3.155  1.00  0.00    +0.002 A 
ATOM     34  C   UNL     1      -7.378   1.667   1.570  1.00  0.00    +0.041 A 
ATOM     35  C   UNL     1      -6.879   1.524   2.863  1.00  0.00    +0.020 A 
ATOM     36 Cl   UNL     1      -8.460   2.957   1.212  1.00  0.00    -0.084 Cl
ENDBRANCH  26  30
ENDBRANCH  18  20
ENDBRANCH  17  18
ENDBRANCH   1  16
TORSDOF 9
