REMARK SMILES C[N+](C)(C)C[C@@H](O)COc1cc(O)c(Cl)cc1F
REMARK SMILES IDX 8 1 6 2 5 3 2 4 1 5 3 6 4 7 7 8 9 10 10 11 11 12 17 13 12 14
REMARK SMILES IDX 16 15 14 16 18 17 15 18 13 19
REMARK H PARENT 7 9 13 20
ROOT
ATOM      1  C   UNL     1       0.208   0.537   0.683  1.00  0.00    +0.267 C 
ENDROOT
BRANCH   1   2
ATOM      2  C   UNL     1      -0.573   0.454  -0.629  1.00  0.00    +0.206 C 
BRANCH   2   3
ATOM      3  C   UNL     1      -1.721  -0.582  -0.668  1.00  0.00    +0.299 C 
BRANCH   3   4
ATOM      4  N   UNL     1      -2.944  -0.383   0.266  1.00  0.00    -0.329 N 
ATOM      5  C   UNL     1      -2.669  -0.826   1.694  1.00  0.00    +0.334 C 
ATOM      6  C   UNL     1      -4.077  -1.267  -0.280  1.00  0.00    +0.334 C 
ATOM      7  C   UNL     1      -3.448   1.060   0.261  1.00  0.00    +0.334 C 
ENDBRANCH   3   4
ENDBRANCH   2   3
BRANCH   2   8
ATOM      8  O   UNL     1      -1.056   1.755  -0.991  1.00  0.00    -0.384 OA
ATOM      9  H   UNL     1      -0.279   2.354  -0.988  1.00  0.00    +0.211 HD
ENDBRANCH   2   8
ENDBRANCH   1   2
BRANCH   1  10
ATOM     10  O   UNL     1       1.367   1.357   0.497  1.00  0.00    -0.487 OA
BRANCH  10  11
ATOM     11  C   UNL     1       2.551   0.778   0.137  1.00  0.00    +0.158 A 
ATOM     12  C   UNL     1       2.740  -0.562  -0.200  1.00  0.00    +0.097 A 
ATOM     13  C   UNL     1       3.655   1.643   0.096  1.00  0.00    +0.166 A 
ATOM     14  C   UNL     1       4.012  -1.010  -0.560  1.00  0.00    +0.138 A 
ATOM     15  C   UNL     1       4.926   1.200  -0.261  1.00  0.00    +0.067 A 
ATOM     16  C   UNL     1       5.103  -0.138  -0.590  1.00  0.00    +0.085 A 
ATOM     17  F   UNL     1       3.493   2.939   0.403  1.00  0.00    -0.203 F 
ATOM     18 Cl   UNL     1       6.664  -0.710  -1.037  1.00  0.00    -0.080 Cl
BRANCH  14  19
ATOM     19  O   UNL     1       4.129  -2.334  -0.882  1.00  0.00    -0.506 OA
ATOM     20  H   UNL     1       5.069  -2.502  -1.099  1.00  0.00    +0.293 HD
ENDBRANCH  14  19
ENDBRANCH  10  11
ENDBRANCH   1  10
TORSDOF 7
