REMARK SMILES CN(C(=O)c1ccc(F)c(Cl)c1)c1ccc(-c2cc(O)ccc2[N+](=O)[O-])[nH]1
REMARK SMILES IDX 13 1 14 2 15 3 16 4 27 5 2 7 1 8 3 9 4 10 5 11 6 12 12 13
REMARK SMILES IDX 7 14 10 15 8 16 11 17 9 18 17 19 18 20 23 21 19 22 22 23
REMARK SMILES IDX 21 24 24 25 25 26 26 27 20 28
REMARK H PARENT 27 6 20 29
ROOT
ATOM      1  C   UNL     1       0.149  -0.624  -1.212  1.00  0.00    +0.113 A 
ATOM      2  C   UNL     1      -0.605  -0.882  -2.339  1.00  0.00    +0.047 A 
ATOM      3  C   UNL     1      -1.973  -0.737  -1.993  1.00  0.00    +0.031 A 
ATOM      4  C   UNL     1      -2.041  -0.387  -0.656  1.00  0.00    +0.054 A 
ATOM      5  N   UNL     1      -0.742  -0.331  -0.204  1.00  0.00    -0.341 N 
ATOM      6  H   UNL     1      -0.449  -0.103   0.741  1.00  0.00    +0.168 HD
ENDROOT
BRANCH   1   7
ATOM      7  N   UNL     1       1.543  -0.623  -1.031  1.00  0.00    -0.297 N 
ATOM      8  C   UNL     1       2.420  -0.983  -2.148  1.00  0.00    +0.155 C 
BRANCH   7   9
ATOM      9  C   UNL     1       2.043  -0.268   0.236  1.00  0.00    +0.259 C 
ATOM     10  O   UNL     1       1.372  -0.130   1.261  1.00  0.00    -0.269 OA
BRANCH   9  11
ATOM     11  C   UNL     1       3.492  -0.011   0.381  1.00  0.00    +0.042 A 
ATOM     12  C   UNL     1       4.100   1.033  -0.330  1.00  0.00    +0.017 A 
ATOM     13  C   UNL     1       4.225  -0.779   1.293  1.00  0.00    +0.037 A 
ATOM     14  C   UNL     1       5.462   1.282  -0.154  1.00  0.00    +0.041 A 
ATOM     15  C   UNL     1       5.584  -0.522   1.462  1.00  0.00    +0.077 A 
ATOM     16  C   UNL     1       6.197   0.501   0.737  1.00  0.00    +0.141 A 
ATOM     17 Cl   UNL     1       6.494  -1.478   2.567  1.00  0.00    -0.081 Cl
ATOM     18  F   UNL     1       7.504   0.759   0.886  1.00  0.00    -0.205 F 
ENDBRANCH   9  11
ENDBRANCH   7   9
ENDBRANCH   1   7
BRANCH   4  19
ATOM     19  C   UNL     1      -3.188  -0.112   0.209  1.00  0.00    +0.079 A 
ATOM     20  C   UNL     1      -3.284  -0.771   1.445  1.00  0.00    +0.063 A 
ATOM     21  C   UNL     1      -4.227   0.768  -0.128  1.00  0.00    +0.278 A 
ATOM     22  C   UNL     1      -4.376  -0.552   2.287  1.00  0.00    +0.116 A 
ATOM     23  C   UNL     1      -5.329   0.991   0.713  1.00  0.00    +0.090 A 
ATOM     24  C   UNL     1      -5.400   0.320   1.932  1.00  0.00    +0.053 A 
BRANCH  21  25
ATOM     25  N   UNL     1      -4.182   1.523  -1.361  1.00  0.00    +0.063 N 
ATOM     26  O   UNL     1      -3.443   2.516  -1.391  1.00  0.00    -0.258 OA
ATOM     27  O   UNL     1      -4.930   1.147  -2.275  1.00  0.00    -0.258 OA
ENDBRANCH  21  25
BRANCH  22  28
ATOM     28  O   UNL     1      -4.403  -1.231   3.470  1.00  0.00    -0.508 OA
ATOM     29  H   UNL     1      -5.207  -0.990   3.959  1.00  0.00    +0.293 HD
ENDBRANCH  22  28
ENDBRANCH   4  19
TORSDOF 6
