MODEL 1
REMARK VINA RESULT:    -6.276      0.000      0.000
REMARK INTER + INTRA:          -7.662
REMARK INTER:                  -7.193
REMARK INTRA:                  -0.469
REMARK UNBOUND:                -0.469
REMARK SMILES O=[N+]([O-])c1cc(N2CCOCC2)ccc1O
REMARK SMILES IDX 4 1 5 2 6 3 13 4 14 5 15 6 2 7 1 8 3 9 16 10 7 12 8 13 12 14
REMARK SMILES IDX 9 15 11 16 10 17
REMARK H PARENT 16 11
ROOT
ATOM      1  C   UNL     1      26.706   0.379  54.007  1.00  0.00    +0.312 A 
ATOM      2  C   UNL     1      25.378  -0.076  54.074  1.00  0.00    +0.115 A 
ATOM      3  C   UNL     1      24.429   0.289  53.102  1.00  0.00    +0.044 A 
ATOM      4  C   UNL     1      24.871   1.108  52.053  1.00  0.00    +0.030 A 
ATOM      5  C   UNL     1      26.194   1.564  51.982  1.00  0.00    +0.056 A 
ATOM      6  C   UNL     1      27.116   1.205  52.957  1.00  0.00    +0.194 A 
ENDROOT
BRANCH   1   7
ATOM      7  N   UNL     1      27.644  -0.031  55.054  1.00  0.00    +0.066 N 
ATOM      8  O   UNL     1      27.290   0.084  56.236  1.00  0.00    -0.258 OA
ATOM      9  O   UNL     1      28.750  -0.465  54.693  1.00  0.00    -0.258 OA
ENDBRANCH   1   7
BRANCH   6  10
ATOM     10  O   UNL     1      28.376   1.708  52.786  1.00  0.00    -0.502 OA
ATOM     11  H   UNL     1      29.025   0.974  52.747  1.00  0.00    +0.293 HD
ENDBRANCH   6  10
BRANCH   3  12
ATOM     12  N   UNL     1      23.121  -0.205  53.202  1.00  0.00    -0.367 N 
ATOM     13  C   UNL     1      22.003   0.691  52.828  1.00  0.00    +0.145 C 
ATOM     14  C   UNL     1      22.837  -0.933  54.466  1.00  0.00    +0.145 C 
ATOM     15  C   UNL     1      20.687  -0.102  52.785  1.00  0.00    +0.181 C 
ATOM     16  C   UNL     1      21.480  -1.649  54.370  1.00  0.00    +0.181 C 
ATOM     17  O   UNL     1      20.420  -0.736  54.046  1.00  0.00    -0.378 OA
ENDBRANCH   3  12
TORSDOF 3
ENDMDL
MODEL 2
REMARK VINA RESULT:    -6.169      2.164      4.454
REMARK INTER + INTRA:          -7.540
REMARK INTER:                  -7.080
REMARK INTRA:                  -0.460
REMARK UNBOUND:                -0.469
REMARK SMILES O=[N+]([O-])c1cc(N2CCOCC2)ccc1O
REMARK SMILES IDX 4 1 5 2 6 3 13 4 14 5 15 6 2 7 1 8 3 9 16 10 7 12 8 13 12 14
REMARK SMILES IDX 9 15 11 16 10 17
REMARK H PARENT 16 11
ROOT
ATOM      1  C   UNL     1      26.211   0.022  54.509  1.00  0.00    +0.312 A 
ATOM      2  C   UNL     1      26.253   0.918  53.426  1.00  0.00    +0.115 A 
ATOM      3  C   UNL     1      25.146   1.092  52.576  1.00  0.00    +0.044 A 
ATOM      4  C   UNL     1      23.992   0.350  52.870  1.00  0.00    +0.030 A 
ATOM      5  C   UNL     1      23.945  -0.544  53.948  1.00  0.00    +0.056 A 
ATOM      6  C   UNL     1      25.052  -0.713  54.770  1.00  0.00    +0.194 A 
ENDROOT
BRANCH   1   7
ATOM      7  N   UNL     1      27.400  -0.119  55.351  1.00  0.00    +0.066 N 
ATOM      8  O   UNL     1      28.478  -0.388  54.803  1.00  0.00    -0.258 OA
ATOM      9  O   UNL     1      27.255   0.034  56.575  1.00  0.00    -0.258 OA
ENDBRANCH   1   7
BRANCH   6  10
ATOM     10  O   UNL     1      24.892  -1.610  55.790  1.00  0.00    -0.502 OA
ATOM     11  H   UNL     1      23.952  -1.882  55.850  1.00  0.00    +0.293 HD
ENDBRANCH   6  10
BRANCH   3  12
ATOM     12  N   UNL     1      25.229   2.009  51.519  1.00  0.00    -0.367 N 
ATOM     13  C   UNL     1      26.569   2.489  51.111  1.00  0.00    +0.145 C 
ATOM     14  C   UNL     1      24.252   3.126  51.601  1.00  0.00    +0.145 C 
ATOM     15  C   UNL     1      26.463   3.294  49.806  1.00  0.00    +0.181 C 
ATOM     16  C   UNL     1      24.246   3.921  50.285  1.00  0.00    +0.181 C 
ATOM     17  O   UNL     1      25.558   4.401  49.950  1.00  0.00    -0.378 OA
ENDBRANCH   3  12
TORSDOF 3
ENDMDL
MODEL 3
REMARK VINA RESULT:    -6.104      2.636      4.229
REMARK INTER + INTRA:          -7.466
REMARK INTER:                  -7.006
REMARK INTRA:                  -0.459
REMARK UNBOUND:                -0.469
REMARK SMILES O=[N+]([O-])c1cc(N2CCOCC2)ccc1O
REMARK SMILES IDX 4 1 5 2 6 3 13 4 14 5 15 6 2 7 1 8 3 9 16 10 7 12 8 13 12 14
REMARK SMILES IDX 9 15 11 16 10 17
REMARK H PARENT 16 11
ROOT
ATOM      1  C   UNL     1      24.041  -0.689  54.268  1.00  0.00    +0.312 A 
ATOM      2  C   UNL     1      23.752   0.084  53.129  1.00  0.00    +0.115 A 
ATOM      3  C   UNL     1      22.428   0.299  52.707  1.00  0.00    +0.044 A 
ATOM      4  C   UNL     1      21.409  -0.273  53.483  1.00  0.00    +0.030 A 
ATOM      5  C   UNL     1      21.692  -1.044  54.618  1.00  0.00    +0.056 A 
ATOM      6  C   UNL     1      23.006  -1.257  55.015  1.00  0.00    +0.194 A 
ENDROOT
BRANCH   1   7
ATOM      7  N   UNL     1      25.441  -0.881  54.650  1.00  0.00    +0.066 N 
ATOM      8  O   UNL     1      25.733  -0.823  55.853  1.00  0.00    -0.258 OA
ATOM      9  O   UNL     1      26.260  -1.084  53.739  1.00  0.00    -0.258 OA
ENDBRANCH   1   7
BRANCH   6  10
ATOM     10  O   UNL     1      23.163  -2.024  56.136  1.00  0.00    -0.502 OA
ATOM     11  H   UNL     1      22.395  -1.901  56.733  1.00  0.00    +0.293 HD
ENDBRANCH   6  10
BRANCH   3  12
ATOM     12  N   UNL     1      22.189   1.091  51.575  1.00  0.00    -0.367 N 
ATOM     13  C   UNL     1      21.332   0.539  50.501  1.00  0.00    +0.145 C 
ATOM     14  C   UNL     1      23.401   1.749  51.023  1.00  0.00    +0.145 C 
ATOM     15  C   UNL     1      21.008   1.635  49.473  1.00  0.00    +0.181 C 
ATOM     16  C   UNL     1      23.002   2.786  49.960  1.00  0.00    +0.181 C 
ATOM     17  O   UNL     1      22.207   2.198  48.918  1.00  0.00    -0.378 OA
ENDBRANCH   3  12
TORSDOF 3
ENDMDL
MODEL 4
REMARK VINA RESULT:    -6.047      1.704      5.556
REMARK INTER + INTRA:          -7.400
REMARK INTER:                  -7.028
REMARK INTRA:                  -0.372
REMARK UNBOUND:                -0.469
REMARK SMILES O=[N+]([O-])c1cc(N2CCOCC2)ccc1O
REMARK SMILES IDX 4 1 5 2 6 3 13 4 14 5 15 6 2 7 1 8 3 9 16 10 7 12 8 13 12 14
REMARK SMILES IDX 9 15 11 16 10 17
REMARK H PARENT 16 11
ROOT
ATOM      1  C   UNL     1      22.252  -0.170  53.537  1.00  0.00    +0.312 A 
ATOM      2  C   UNL     1      23.625  -0.449  53.655  1.00  0.00    +0.115 A 
ATOM      3  C   UNL     1      24.595   0.388  53.076  1.00  0.00    +0.044 A 
ATOM      4  C   UNL     1      24.135   1.526  52.396  1.00  0.00    +0.030 A 
ATOM      5  C   UNL     1      22.768   1.808  52.276  1.00  0.00    +0.056 A 
ATOM      6  C   UNL     1      21.821   0.964  52.843  1.00  0.00    +0.194 A 
ENDROOT
BRANCH   1   7
ATOM      7  N   UNL     1      21.293  -1.085  54.156  1.00  0.00    +0.066 N 
ATOM      8  O   UNL     1      21.683  -1.799  55.091  1.00  0.00    -0.258 OA
ATOM      9  O   UNL     1      20.138  -1.098  53.699  1.00  0.00    -0.258 OA
ENDBRANCH   1   7
BRANCH   6  10
ATOM     10  O   UNL     1      20.519   1.338  52.663  1.00  0.00    -0.502 OA
ATOM     11  H   UNL     1      20.416   1.779  51.793  1.00  0.00    +0.293 HD
ENDBRANCH   6  10
BRANCH   3  12
ATOM     12  N   UNL     1      25.953   0.078  53.235  1.00  0.00    -0.367 N 
ATOM     13  C   UNL     1      26.414  -1.274  52.844  1.00  0.00    +0.145 C 
ATOM     14  C   UNL     1      26.525   0.492  54.542  1.00  0.00    +0.145 C 
ATOM     15  C   UNL     1      27.949  -1.335  52.876  1.00  0.00    +0.181 C 
ATOM     16  C   UNL     1      28.056   0.346  54.520  1.00  0.00    +0.181 C 
ATOM     17  O   UNL     1      28.456  -0.990  54.175  1.00  0.00    -0.378 OA
ENDBRANCH   3  12
TORSDOF 3
ENDMDL
MODEL 5
REMARK VINA RESULT:    -5.927      1.687      2.404
REMARK INTER + INTRA:          -7.262
REMARK INTER:                  -6.822
REMARK INTRA:                  -0.440
REMARK UNBOUND:                -0.469
REMARK SMILES O=[N+]([O-])c1cc(N2CCOCC2)ccc1O
REMARK SMILES IDX 4 1 5 2 6 3 13 4 14 5 15 6 2 7 1 8 3 9 16 10 7 12 8 13 12 14
REMARK SMILES IDX 9 15 11 16 10 17
REMARK H PARENT 16 11
ROOT
ATOM      1  C   UNL     1      27.893   0.799  53.512  1.00  0.00    +0.312 A 
ATOM      2  C   UNL     1      26.525   1.058  53.317  1.00  0.00    +0.115 A 
ATOM      3  C   UNL     1      25.633   0.040  52.936  1.00  0.00    +0.044 A 
ATOM      4  C   UNL     1      26.163  -1.249  52.781  1.00  0.00    +0.030 A 
ATOM      5  C   UNL     1      27.526  -1.513  52.973  1.00  0.00    +0.056 A 
ATOM      6  C   UNL     1      28.396  -0.493  53.337  1.00  0.00    +0.194 A 
ENDROOT
BRANCH   1   7
ATOM      7  N   UNL     1      28.770   1.904  53.900  1.00  0.00    +0.066 N 
ATOM      8  O   UNL     1      29.337   1.843  55.001  1.00  0.00    -0.258 OA
ATOM      9  O   UNL     1      28.889   2.848  53.102  1.00  0.00    -0.258 OA
ENDBRANCH   1   7
BRANCH   6  10
ATOM     10  O   UNL     1      29.701  -0.866  53.497  1.00  0.00    -0.502 OA
ATOM     11  H   UNL     1      29.967  -0.756  54.435  1.00  0.00    +0.293 HD
ENDBRANCH   6  10
BRANCH   3  12
ATOM     12  N   UNL     1      24.274   0.344  52.771  1.00  0.00    -0.367 N 
ATOM     13  C   UNL     1      23.866   1.767  52.792  1.00  0.00    +0.145 C 
ATOM     14  C   UNL     1      23.357  -0.498  53.582  1.00  0.00    +0.145 C 
ATOM     15  C   UNL     1      22.395   1.898  52.367  1.00  0.00    +0.181 C 
ATOM     16  C   UNL     1      21.901  -0.269  53.144  1.00  0.00    +0.181 C 
ATOM     17  O   UNL     1      21.537   1.119  53.218  1.00  0.00    -0.378 OA
ENDBRANCH   3  12
TORSDOF 3
ENDMDL
MODEL 6
REMARK VINA RESULT:    -5.821      2.683      4.821
REMARK INTER + INTRA:          -7.141
REMARK INTER:                  -6.684
REMARK INTRA:                  -0.457
REMARK UNBOUND:                -0.469
REMARK SMILES O=[N+]([O-])c1cc(N2CCOCC2)ccc1O
REMARK SMILES IDX 4 1 5 2 6 3 13 4 14 5 15 6 2 7 1 8 3 9 16 10 7 12 8 13 12 14
REMARK SMILES IDX 9 15 11 16 10 17
REMARK H PARENT 16 11
ROOT
ATOM      1  C   UNL     1      23.445  -0.481  54.223  1.00  0.00    +0.312 A 
ATOM      2  C   UNL     1      23.334   0.352  53.096  1.00  0.00    +0.115 A 
ATOM      3  C   UNL     1      24.472   0.830  52.422  1.00  0.00    +0.044 A 
ATOM      4  C   UNL     1      25.722   0.421  52.910  1.00  0.00    +0.030 A 
ATOM      5  C   UNL     1      25.838  -0.408  54.034  1.00  0.00    +0.056 A 
ATOM      6  C   UNL     1      24.704  -0.861  54.696  1.00  0.00    +0.194 A 
ENDROOT
BRANCH   1   7
ATOM      7  N   UNL     1      22.222  -0.938  54.884  1.00  0.00    +0.066 N 
ATOM      8  O   UNL     1      22.189  -2.098  55.318  1.00  0.00    -0.258 OA
ATOM      9  O   UNL     1      21.280  -0.133  54.964  1.00  0.00    -0.258 OA
ENDBRANCH   1   7
BRANCH   6  10
ATOM     10  O   UNL     1      24.938  -1.664  55.777  1.00  0.00    -0.502 OA
ATOM     11  H   UNL     1      25.897  -1.861  55.844  1.00  0.00    +0.293 HD
ENDBRANCH   6  10
BRANCH   3  12
ATOM     12  N   UNL     1      24.309   1.643  51.292  1.00  0.00    -0.367 N 
ATOM     13  C   UNL     1      25.156   2.852  51.171  1.00  0.00    +0.145 C 
ATOM     14  C   UNL     1      22.893   1.932  50.946  1.00  0.00    +0.145 C 
ATOM     15  C   UNL     1      24.991   3.469  49.773  1.00  0.00    +0.181 C 
ATOM     16  C   UNL     1      22.813   2.603  49.565  1.00  0.00    +0.181 C 
ATOM     17  O   UNL     1      23.616   3.792  49.506  1.00  0.00    -0.378 OA
ENDBRANCH   3  12
TORSDOF 3
ENDMDL
MODEL 7
REMARK VINA RESULT:    -5.748      1.759      5.983
REMARK INTER + INTRA:          -7.057
REMARK INTER:                  -6.620
REMARK INTRA:                  -0.437
REMARK UNBOUND:                -0.469
REMARK SMILES O=[N+]([O-])c1cc(N2CCOCC2)ccc1O
REMARK SMILES IDX 4 1 5 2 6 3 13 4 14 5 15 6 2 7 1 8 3 9 16 10 7 12 8 13 12 14
REMARK SMILES IDX 9 15 11 16 10 17
REMARK H PARENT 16 11
ROOT
ATOM      1  C   UNL     1      22.642  -0.110  53.242  1.00  0.00    +0.312 A 
ATOM      2  C   UNL     1      24.048  -0.109  53.227  1.00  0.00    +0.115 A 
ATOM      3  C   UNL     1      24.793  -0.686  54.270  1.00  0.00    +0.044 A 
ATOM      4  C   UNL     1      24.073  -1.282  55.316  1.00  0.00    +0.030 A 
ATOM      5  C   UNL     1      22.672  -1.285  55.337  1.00  0.00    +0.056 A 
ATOM      6  C   UNL     1      21.951  -0.700  54.304  1.00  0.00    +0.194 A 
ENDROOT
BRANCH   1   7
ATOM      7  N   UNL     1      21.926   0.513  52.129  1.00  0.00    +0.066 N 
ATOM      8  O   UNL     1      22.359   1.584  51.679  1.00  0.00    -0.258 OA
ATOM      9  O   UNL     1      20.914  -0.067  51.703  1.00  0.00    -0.258 OA
ENDBRANCH   1   7
BRANCH   6  10
ATOM     10  O   UNL     1      20.591  -0.763  54.429  1.00  0.00    -0.502 OA
ATOM     11  H   UNL     1      20.237   0.120  54.669  1.00  0.00    +0.293 HD
ENDBRANCH   6  10
BRANCH   3  12
ATOM     12  N   UNL     1      26.193  -0.676  54.201  1.00  0.00    -0.367 N 
ATOM     13  C   UNL     1      26.912   0.518  54.702  1.00  0.00    +0.145 C 
ATOM     14  C   UNL     1      26.744  -1.139  52.901  1.00  0.00    +0.145 C 
ATOM     15  C   UNL     1      28.422   0.239  54.752  1.00  0.00    +0.181 C 
ATOM     16  C   UNL     1      28.265  -1.337  53.011  1.00  0.00    +0.181 C 
ATOM     17  O   UNL     1      28.924  -0.142  53.461  1.00  0.00    -0.378 OA
ENDBRANCH   3  12
TORSDOF 3
ENDMDL
MODEL 8
REMARK VINA RESULT:    -5.726      2.306      3.562
REMARK INTER + INTRA:          -7.032
REMARK INTER:                  -6.576
REMARK INTRA:                  -0.456
REMARK UNBOUND:                -0.469
REMARK SMILES O=[N+]([O-])c1cc(N2CCOCC2)ccc1O
REMARK SMILES IDX 4 1 5 2 6 3 13 4 14 5 15 6 2 7 1 8 3 9 16 10 7 12 8 13 12 14
REMARK SMILES IDX 9 15 11 16 10 17
REMARK H PARENT 16 11
ROOT
ATOM      1  C   UNL     1      24.440  -0.570  53.891  1.00  0.00    +0.312 A 
ATOM      2  C   UNL     1      23.372  -0.165  53.071  1.00  0.00    +0.115 A 
ATOM      3  C   UNL     1      22.035  -0.389  53.445  1.00  0.00    +0.044 A 
ATOM      4  C   UNL     1      21.813  -1.014  54.681  1.00  0.00    +0.030 A 
ATOM      5  C   UNL     1      22.874  -1.421  55.501  1.00  0.00    +0.056 A 
ATOM      6  C   UNL     1      24.190  -1.203  55.111  1.00  0.00    +0.194 A 
ENDROOT
BRANCH   1   7
ATOM      7  N   UNL     1      25.809  -0.315  53.440  1.00  0.00    +0.066 N 
ATOM      8  O   UNL     1      26.061   0.784  52.926  1.00  0.00    -0.258 OA
ATOM      9  O   UNL     1      26.640  -1.224  53.593  1.00  0.00    -0.258 OA
ENDBRANCH   1   7
BRANCH   6  10
ATOM     10  O   UNL     1      25.141  -1.641  55.990  1.00  0.00    -0.502 OA
ATOM     11  H   UNL     1      25.654  -0.878  56.332  1.00  0.00    +0.293 HD
ENDBRANCH   6  10
BRANCH   3  12
ATOM     12  N   UNL     1      21.004   0.050  52.603  1.00  0.00    -0.367 N 
ATOM     13  C   UNL     1      21.012   1.463  52.162  1.00  0.00    +0.145 C 
ATOM     14  C   UNL     1      19.646  -0.383  53.023  1.00  0.00    +0.145 C 
ATOM     15  C   UNL     1      19.946   1.679  51.075  1.00  0.00    +0.181 C 
ATOM     16  C   UNL     1      18.627  -0.080  51.913  1.00  0.00    +0.181 C 
ATOM     17  O   UNL     1      18.640   1.309  51.546  1.00  0.00    -0.378 OA
ENDBRANCH   3  12
TORSDOF 3
ENDMDL
MODEL 9
REMARK VINA RESULT:    -5.468      2.328      6.042
REMARK INTER + INTRA:          -6.736
REMARK INTER:                  -6.270
REMARK INTRA:                  -0.466
REMARK UNBOUND:                -0.469
REMARK SMILES O=[N+]([O-])c1cc(N2CCOCC2)ccc1O
REMARK SMILES IDX 4 1 5 2 6 3 13 4 14 5 15 6 2 7 1 8 3 9 16 10 7 12 8 13 12 14
REMARK SMILES IDX 9 15 11 16 10 17
REMARK H PARENT 16 11
ROOT
ATOM      1  C   UNL     1      22.686   1.117  51.898  1.00  0.00    +0.312 A 
ATOM      2  C   UNL     1      24.038   1.291  52.242  1.00  0.00    +0.115 A 
ATOM      3  C   UNL     1      24.653   0.493  53.222  1.00  0.00    +0.044 A 
ATOM      4  C   UNL     1      23.865  -0.499  53.826  1.00  0.00    +0.030 A 
ATOM      5  C   UNL     1      22.517  -0.675  53.487  1.00  0.00    +0.056 A 
ATOM      6  C   UNL     1      21.921   0.131  52.525  1.00  0.00    +0.194 A 
ENDROOT
BRANCH   1   7
ATOM      7  N   UNL     1      22.103   1.986  50.874  1.00  0.00    +0.066 N 
ATOM      8  O   UNL     1      21.081   2.626  51.161  1.00  0.00    -0.258 OA
ATOM      9  O   UNL     1      22.666   2.024  49.768  1.00  0.00    -0.258 OA
ENDBRANCH   1   7
BRANCH   6  10
ATOM     10  O   UNL     1      20.603  -0.132  52.276  1.00  0.00    -0.502 OA
ATOM     11  H   UNL     1      20.124   0.705  52.096  1.00  0.00    +0.293 HD
ENDBRANCH   6  10
BRANCH   3  12
ATOM     12  N   UNL     1      26.009   0.692  53.518  1.00  0.00    -0.367 N 
ATOM     13  C   UNL     1      26.544   0.116  54.773  1.00  0.00    +0.145 C 
ATOM     14  C   UNL     1      26.480   2.086  53.312  1.00  0.00    +0.145 C 
ATOM     15  C   UNL     1      28.076   0.244  54.797  1.00  0.00    +0.181 C 
ATOM     16  C   UNL     1      28.014   2.145  53.411  1.00  0.00    +0.181 C 
ATOM     17  O   UNL     1      28.486   1.615  54.660  1.00  0.00    -0.378 OA
ENDBRANCH   3  12
TORSDOF 3
ENDMDL
