MODEL 1
REMARK VINA RESULT:    -9.054      0.000      0.000
REMARK INTER + INTRA:         -10.426
REMARK INTER:                 -10.113
REMARK INTRA:                  -0.314
REMARK UNBOUND:                -0.314
REMARK SMILES Cc1cccc(C=C2C(=O)N(C)c3ncnc(-c4ccccn4)c32)c1
REMARK SMILES IDX 7 1 8 2 9 3 10 4 11 5 12 6 13 7 14 8 15 9 16 10 17 11 24 12
REMARK SMILES IDX 6 13 2 14 3 15 25 16 4 17 5 18 1 19 18 20 19 21 23 22 20 23
REMARK SMILES IDX 22 24 21 25
REMARK H PARENT
ROOT
ATOM      1  C   UNL     1      25.628   1.222  52.890  1.00  0.00    +0.022 C 
ATOM      2  C   UNL     1      24.435   0.692  53.205  1.00  0.00    +0.054 C 
ATOM      3  C   UNL     1      24.214  -0.514  54.086  1.00  0.00    +0.260 C 
ATOM      4  O   UNL     1      25.048  -1.264  54.556  1.00  0.00    -0.269 OA
ATOM      5  N   UNL     1      22.841  -0.571  54.259  1.00  0.00    -0.295 N 
ATOM      6  C   UNL     1      22.138  -1.546  55.045  1.00  0.00    +0.155 C 
ATOM      7  C   UNL     1      22.188   0.446  53.558  1.00  0.00    +0.147 A 
ATOM      8  N   UNL     1      20.861   0.615  53.572  1.00  0.00    -0.218 NA
ATOM      9  C   UNL     1      20.443   1.645  52.832  1.00  0.00    +0.225 A 
ATOM     10  N   UNL     1      21.221   2.464  52.103  1.00  0.00    -0.234 NA
ATOM     11  C   UNL     1      22.566   2.225  52.094  1.00  0.00    +0.102 A 
ATOM     12  C   UNL     1      23.106   1.222  52.866  1.00  0.00    +0.058 A 
ENDROOT
BRANCH   1  13
ATOM     13  C   UNL     1      26.947   0.701  53.261  1.00  0.00    -0.025 A 
ATOM     14  C   UNL     1      28.597  -1.090  53.278  1.00  0.00    -0.051 A 
ATOM     15  C   UNL     1      29.503  -0.235  53.916  1.00  0.00    +0.003 A 
ATOM     16  C   UNL     1      27.316  -0.615  52.960  1.00  0.00    +0.011 A 
ATOM     17  C   UNL     1      29.144   1.081  54.209  1.00  0.00    +0.001 A 
ATOM     18  C   UNL     1      27.872   1.550  53.877  1.00  0.00    +0.008 A 
ATOM     19  C   UNL     1      28.963  -2.519  53.002  1.00  0.00    +0.044 C 
ENDBRANCH   1  13
BRANCH  11  20
ATOM     20  C   UNL     1      23.329   3.093  51.184  1.00  0.00    +0.089 A 
ATOM     21  C   UNL     1      23.683   2.677  49.899  1.00  0.00    +0.031 A 
ATOM     22  N   UNL     1      23.719   4.299  51.676  1.00  0.00    -0.255 NA
ATOM     23  C   UNL     1      24.438   3.525  49.092  1.00  0.00    +0.004 A 
ATOM     24  C   UNL     1      24.455   5.099  50.873  1.00  0.00    +0.112 A 
ATOM     25  C   UNL     1      24.832   4.761  49.585  1.00  0.00    +0.020 A 
ENDBRANCH  11  20
TORSDOF 2
ENDMDL
MODEL 2
REMARK VINA RESULT:    -8.936      1.677      4.320
REMARK INTER + INTRA:         -10.294
REMARK INTER:                 -10.034
REMARK INTRA:                  -0.260
REMARK UNBOUND:                -0.314
REMARK SMILES Cc1cccc(C=C2C(=O)N(C)c3ncnc(-c4ccccn4)c32)c1
REMARK SMILES IDX 7 1 8 2 9 3 10 4 11 5 12 6 13 7 14 8 15 9 16 10 17 11 24 12
REMARK SMILES IDX 6 13 2 14 3 15 25 16 4 17 5 18 1 19 18 20 19 21 23 22 20 23
REMARK SMILES IDX 22 24 21 25
REMARK H PARENT
ROOT
ATOM      1  C   UNL     1      25.507   0.686  52.718  1.00  0.00    +0.022 C 
ATOM      2  C   UNL     1      25.137   1.643  51.851  1.00  0.00    +0.054 C 
ATOM      3  C   UNL     1      26.072   2.587  51.132  1.00  0.00    +0.260 C 
ATOM      4  O   UNL     1      27.269   2.722  51.289  1.00  0.00    -0.269 OA
ATOM      5  N   UNL     1      25.261   3.259  50.232  1.00  0.00    -0.295 N 
ATOM      6  C   UNL     1      25.700   4.258  49.298  1.00  0.00    +0.155 C 
ATOM      7  C   UNL     1      23.927   2.859  50.338  1.00  0.00    +0.147 A 
ATOM      8  N   UNL     1      22.947   3.351  49.570  1.00  0.00    -0.218 NA
ATOM      9  C   UNL     1      21.745   2.835  49.837  1.00  0.00    +0.225 A 
ATOM     10  N   UNL     1      21.468   1.921  50.782  1.00  0.00    -0.234 NA
ATOM     11  C   UNL     1      22.497   1.478  51.563  1.00  0.00    +0.102 A 
ATOM     12  C   UNL     1      23.786   1.905  51.335  1.00  0.00    +0.058 A 
ENDROOT
BRANCH   1  13
ATOM     13  C   UNL     1      26.864   0.415  53.201  1.00  0.00    -0.025 A 
ATOM     14  C   UNL     1      28.801  -1.049  53.386  1.00  0.00    -0.051 A 
ATOM     15  C   UNL     1      29.485  -0.039  54.073  1.00  0.00    +0.003 A 
ATOM     16  C   UNL     1      27.486  -0.816  52.959  1.00  0.00    +0.011 A 
ATOM     17  C   UNL     1      28.873   1.192  54.309  1.00  0.00    +0.001 A 
ATOM     18  C   UNL     1      27.569   1.421  53.869  1.00  0.00    +0.008 A 
ATOM     19  C   UNL     1      29.439  -2.390  53.170  1.00  0.00    +0.044 C 
ENDBRANCH   1  13
BRANCH  11  20
ATOM     20  C   UNL     1      22.090   0.567  52.644  1.00  0.00    +0.089 A 
ATOM     21  C   UNL     1      22.460  -0.779  52.648  1.00  0.00    +0.031 A 
ATOM     22  N   UNL     1      21.289   1.089  53.610  1.00  0.00    -0.255 NA
ATOM     23  C   UNL     1      22.017  -1.606  53.677  1.00  0.00    +0.004 A 
ATOM     24  C   UNL     1      20.869   0.263  54.594  1.00  0.00    +0.112 A 
ATOM     25  C   UNL     1      21.206  -1.076  54.673  1.00  0.00    +0.020 A 
ENDBRANCH  11  20
TORSDOF 2
ENDMDL
MODEL 3
REMARK VINA RESULT:    -8.807      1.905      5.591
REMARK INTER + INTRA:         -10.150
REMARK INTER:                  -9.391
REMARK INTRA:                  -0.759
REMARK UNBOUND:                -0.314
REMARK SMILES Cc1cccc(C=C2C(=O)N(C)c3ncnc(-c4ccccn4)c32)c1
REMARK SMILES IDX 7 1 8 2 9 3 10 4 11 5 12 6 13 7 14 8 15 9 16 10 17 11 24 12
REMARK SMILES IDX 6 13 2 14 3 15 25 16 4 17 5 18 1 19 18 20 19 21 23 22 20 23
REMARK SMILES IDX 22 24 21 25
REMARK H PARENT
ROOT
ATOM      1  C   UNL     1      24.286   1.722  51.731  1.00  0.00    +0.022 C 
ATOM      2  C   UNL     1      23.438   1.165  52.612  1.00  0.00    +0.054 C 
ATOM      3  C   UNL     1      21.938   1.332  52.616  1.00  0.00    +0.260 C 
ATOM      4  O   UNL     1      21.262   2.065  51.920  1.00  0.00    -0.269 OA
ATOM      5  N   UNL     1      21.492   0.446  53.582  1.00  0.00    -0.295 N 
ATOM      6  C   UNL     1      20.120   0.225  53.944  1.00  0.00    +0.155 C 
ATOM      7  C   UNL     1      22.551  -0.226  54.197  1.00  0.00    +0.147 A 
ATOM      8  N   UNL     1      22.384  -1.145  55.156  1.00  0.00    -0.218 NA
ATOM      9  C   UNL     1      23.528  -1.662  55.610  1.00  0.00    +0.225 A 
ATOM     10  N   UNL     1      24.765  -1.328  55.203  1.00  0.00    -0.234 NA
ATOM     11  C   UNL     1      24.882  -0.359  54.247  1.00  0.00    +0.102 A 
ATOM     12  C   UNL     1      23.763   0.200  53.674  1.00  0.00    +0.058 A 
ENDROOT
BRANCH   1  13
ATOM     13  C   UNL     1      23.945   2.659  50.657  1.00  0.00    -0.025 A 
ATOM     14  C   UNL     1      22.955   3.130  48.482  1.00  0.00    -0.051 A 
ATOM     15  C   UNL     1      23.240   4.489  48.659  1.00  0.00    +0.003 A 
ATOM     16  C   UNL     1      23.319   2.219  49.485  1.00  0.00    +0.011 A 
ATOM     17  C   UNL     1      23.855   4.935  49.830  1.00  0.00    +0.001 A 
ATOM     18  C   UNL     1      24.201   4.023  50.828  1.00  0.00    +0.008 A 
ATOM     19  C   UNL     1      22.335   2.642  47.206  1.00  0.00    +0.044 C 
ENDBRANCH   1  13
BRANCH  11  20
ATOM     20  C   UNL     1      26.269   0.026  53.942  1.00  0.00    +0.089 A 
ATOM     21  C   UNL     1      27.157  -0.858  53.328  1.00  0.00    +0.031 A 
ATOM     22  N   UNL     1      26.656   1.268  54.336  1.00  0.00    -0.255 NA
ATOM     23  C   UNL     1      28.470  -0.454  53.095  1.00  0.00    +0.004 A 
ATOM     24  C   UNL     1      27.937   1.632  54.103  1.00  0.00    +0.112 A 
ATOM     25  C   UNL     1      28.870   0.816  53.487  1.00  0.00    +0.020 A 
ENDBRANCH  11  20
TORSDOF 2
ENDMDL
MODEL 4
REMARK VINA RESULT:    -8.797      1.468      2.120
REMARK INTER + INTRA:         -10.139
REMARK INTER:                  -9.135
REMARK INTRA:                  -1.004
REMARK UNBOUND:                -0.314
REMARK SMILES Cc1cccc(C=C2C(=O)N(C)c3ncnc(-c4ccccn4)c32)c1
REMARK SMILES IDX 7 1 8 2 9 3 10 4 11 5 12 6 13 7 14 8 15 9 16 10 17 11 24 12
REMARK SMILES IDX 6 13 2 14 3 15 25 16 4 17 5 18 1 19 18 20 19 21 23 22 20 23
REMARK SMILES IDX 22 24 21 25
REMARK H PARENT
ROOT
ATOM      1  C   UNL     1      24.637   1.902  52.484  1.00  0.00    +0.022 C 
ATOM      2  C   UNL     1      23.322   1.641  52.562  1.00  0.00    +0.054 C 
ATOM      3  C   UNL     1      22.704   0.417  53.195  1.00  0.00    +0.260 C 
ATOM      4  O   UNL     1      23.267  -0.569  53.629  1.00  0.00    -0.269 OA
ATOM      5  N   UNL     1      21.343   0.674  53.191  1.00  0.00    -0.295 N 
ATOM      6  C   UNL     1      20.327  -0.198  53.713  1.00  0.00    +0.155 C 
ATOM      7  C   UNL     1      21.049   1.904  52.598  1.00  0.00    +0.147 A 
ATOM      8  N   UNL     1      19.807   2.389  52.482  1.00  0.00    -0.218 NA
ATOM      9  C   UNL     1      19.749   3.579  51.881  1.00  0.00    +0.225 A 
ATOM     10  N   UNL     1      20.793   4.275  51.398  1.00  0.00    -0.234 NA
ATOM     11  C   UNL     1      22.036   3.719  51.510  1.00  0.00    +0.102 A 
ATOM     12  C   UNL     1      22.213   2.520  52.161  1.00  0.00    +0.058 A 
ENDROOT
BRANCH   1  13
ATOM     13  C   UNL     1      25.733   1.030  52.917  1.00  0.00    -0.025 A 
ATOM     14  C   UNL     1      27.222   0.190  54.651  1.00  0.00    -0.051 A 
ATOM     15  C   UNL     1      27.775  -0.704  53.726  1.00  0.00    +0.003 A 
ATOM     16  C   UNL     1      26.204   1.060  54.235  1.00  0.00    +0.011 A 
ATOM     17  C   UNL     1      27.303  -0.746  52.415  1.00  0.00    +0.001 A 
ATOM     18  C   UNL     1      26.280   0.115  52.012  1.00  0.00    +0.008 A 
ATOM     19  C   UNL     1      27.758   0.268  56.050  1.00  0.00    +0.044 C 
ENDBRANCH   1  13
BRANCH  11  20
ATOM     20  C   UNL     1      23.105   4.490  50.856  1.00  0.00    +0.089 A 
ATOM     21  C   UNL     1      23.679   4.073  49.654  1.00  0.00    +0.031 A 
ATOM     22  N   UNL     1      23.543   5.598  51.509  1.00  0.00    -0.255 NA
ATOM     23  C   UNL     1      24.713   4.821  49.096  1.00  0.00    +0.004 A 
ATOM     24  C   UNL     1      24.552   6.302  50.947  1.00  0.00    +0.112 A 
ATOM     25  C   UNL     1      25.159   5.959  49.753  1.00  0.00    +0.020 A 
ENDBRANCH  11  20
TORSDOF 2
ENDMDL
MODEL 5
REMARK VINA RESULT:    -8.699      2.308      6.052
REMARK INTER + INTRA:         -10.029
REMARK INTER:                  -9.155
REMARK INTRA:                  -0.875
REMARK UNBOUND:                -0.314
REMARK SMILES Cc1cccc(C=C2C(=O)N(C)c3ncnc(-c4ccccn4)c32)c1
REMARK SMILES IDX 7 1 8 2 9 3 10 4 11 5 12 6 13 7 14 8 15 9 16 10 17 11 24 12
REMARK SMILES IDX 6 13 2 14 3 15 25 16 4 17 5 18 1 19 18 20 19 21 23 22 20 23
REMARK SMILES IDX 22 24 21 25
REMARK H PARENT
ROOT
ATOM      1  C   UNL     1      22.967   1.714  50.637  1.00  0.00    +0.022 C 
ATOM      2  C   UNL     1      22.072   1.126  51.449  1.00  0.00    +0.054 C 
ATOM      3  C   UNL     1      20.574   1.141  51.263  1.00  0.00    +0.260 C 
ATOM      4  O   UNL     1      19.925   1.761  50.444  1.00  0.00    -0.269 OA
ATOM      5  N   UNL     1      20.096   0.271  52.230  1.00  0.00    -0.295 N 
ATOM      6  C   UNL     1      18.716  -0.065  52.441  1.00  0.00    +0.155 C 
ATOM      7  C   UNL     1      21.128  -0.254  53.010  1.00  0.00    +0.147 A 
ATOM      8  N   UNL     1      20.930  -1.128  54.004  1.00  0.00    -0.218 NA
ATOM      9  C   UNL     1      22.051  -1.501  54.625  1.00  0.00    +0.225 A 
ATOM     10  N   UNL     1      23.293  -1.068  54.344  1.00  0.00    -0.234 NA
ATOM     11  C   UNL     1      23.437  -0.149  53.344  1.00  0.00    +0.102 A 
ATOM     12  C   UNL     1      22.350   0.261  52.605  1.00  0.00    +0.058 A 
ENDROOT
BRANCH   1  13
ATOM     13  C   UNL     1      22.676   2.548  49.467  1.00  0.00    -0.025 A 
ATOM     14  C   UNL     1      22.489   4.733  48.409  1.00  0.00    -0.051 A 
ATOM     15  C   UNL     1      22.192   4.107  47.193  1.00  0.00    +0.003 A 
ATOM     16  C   UNL     1      22.723   3.945  49.545  1.00  0.00    +0.011 A 
ATOM     17  C   UNL     1      22.154   2.715  47.108  1.00  0.00    +0.001 A 
ATOM     18  C   UNL     1      22.401   1.937  48.240  1.00  0.00    +0.008 A 
ATOM     19  C   UNL     1      22.487   6.230  48.516  1.00  0.00    +0.044 C 
ENDBRANCH   1  13
BRANCH  11  20
ATOM     20  C   UNL     1      24.809   0.356  53.179  1.00  0.00    +0.089 A 
ATOM     21  C   UNL     1      25.849  -0.472  52.753  1.00  0.00    +0.031 A 
ATOM     22  N   UNL     1      25.024   1.656  53.513  1.00  0.00    -0.255 NA
ATOM     23  C   UNL     1      27.137   0.049  52.648  1.00  0.00    +0.004 A 
ATOM     24  C   UNL     1      26.284   2.133  53.407  1.00  0.00    +0.112 A 
ATOM     25  C   UNL     1      27.361   1.378  52.979  1.00  0.00    +0.020 A 
ENDBRANCH  11  20
TORSDOF 2
ENDMDL
MODEL 6
REMARK VINA RESULT:    -8.483      2.117      2.829
REMARK INTER + INTRA:          -9.788
REMARK INTER:                  -8.958
REMARK INTRA:                  -0.830
REMARK UNBOUND:                -0.314
REMARK SMILES Cc1cccc(C=C2C(=O)N(C)c3ncnc(-c4ccccn4)c32)c1
REMARK SMILES IDX 7 1 8 2 9 3 10 4 11 5 12 6 13 7 14 8 15 9 16 10 17 11 24 12
REMARK SMILES IDX 6 13 2 14 3 15 25 16 4 17 5 18 1 19 18 20 19 21 23 22 20 23
REMARK SMILES IDX 22 24 21 25
REMARK H PARENT
ROOT
ATOM      1  C   UNL     1      23.224   1.248  51.876  1.00  0.00    +0.022 C 
ATOM      2  C   UNL     1      22.131   0.532  52.189  1.00  0.00    +0.054 C 
ATOM      3  C   UNL     1      22.013  -0.430  53.347  1.00  0.00    +0.260 C 
ATOM      4  O   UNL     1      22.886  -0.804  54.105  1.00  0.00    -0.269 OA
ATOM      5  N   UNL     1      20.674  -0.785  53.368  1.00  0.00    -0.295 N 
ATOM      6  C   UNL     1      20.061  -1.676  54.312  1.00  0.00    +0.155 C 
ATOM      7  C   UNL     1      19.960  -0.174  52.334  1.00  0.00    +0.147 A 
ATOM      8  N   UNL     1      18.646  -0.345  52.144  1.00  0.00    -0.218 NA
ATOM      9  C   UNL     1      18.162   0.328  51.098  1.00  0.00    +0.225 A 
ATOM     10  N   UNL     1      18.870   1.106  50.260  1.00  0.00    -0.234 NA
ATOM     11  C   UNL     1      20.214   1.218  50.477  1.00  0.00    +0.102 A 
ATOM     12  C   UNL     1      20.804   0.609  51.561  1.00  0.00    +0.058 A 
ENDROOT
BRANCH   1  13
ATOM     13  C   UNL     1      24.533   1.185  52.531  1.00  0.00    -0.025 A 
ATOM     14  C   UNL     1      26.654   0.059  52.938  1.00  0.00    -0.051 A 
ATOM     15  C   UNL     1      27.059   1.134  53.737  1.00  0.00    +0.003 A 
ATOM     16  C   UNL     1      25.384   0.089  52.344  1.00  0.00    +0.011 A 
ATOM     17  C   UNL     1      26.219   2.233  53.920  1.00  0.00    +0.001 A 
ATOM     18  C   UNL     1      24.962   2.262  53.314  1.00  0.00    +0.008 A 
ATOM     19  C   UNL     1      27.536  -1.144  52.776  1.00  0.00    +0.044 C 
ENDBRANCH   1  13
BRANCH  11  20
ATOM     20  C   UNL     1      20.930   1.994  49.451  1.00  0.00    +0.089 A 
ATOM     21  C   UNL     1      21.751   1.376  48.507  1.00  0.00    +0.031 A 
ATOM     22  N   UNL     1      20.794   3.345  49.505  1.00  0.00    -0.255 NA
ATOM     23  C   UNL     1      22.435   2.161  47.580  1.00  0.00    +0.004 A 
ATOM     24  C   UNL     1      21.473   4.082  48.597  1.00  0.00    +0.112 A 
ATOM     25  C   UNL     1      22.294   3.541  47.624  1.00  0.00    +0.020 A 
ENDBRANCH  11  20
TORSDOF 2
ENDMDL
MODEL 7
REMARK VINA RESULT:    -8.367      2.250      4.609
REMARK INTER + INTRA:          -9.658
REMARK INTER:                  -8.734
REMARK INTRA:                  -0.925
REMARK UNBOUND:                -0.314
REMARK SMILES Cc1cccc(C=C2C(=O)N(C)c3ncnc(-c4ccccn4)c32)c1
REMARK SMILES IDX 7 1 8 2 9 3 10 4 11 5 12 6 13 7 14 8 15 9 16 10 17 11 24 12
REMARK SMILES IDX 6 13 2 14 3 15 25 16 4 17 5 18 1 19 18 20 19 21 23 22 20 23
REMARK SMILES IDX 22 24 21 25
REMARK H PARENT
ROOT
ATOM      1  C   UNL     1      24.708   1.302  52.020  1.00  0.00    +0.022 C 
ATOM      2  C   UNL     1      24.852   2.340  51.180  1.00  0.00    +0.054 C 
ATOM      3  C   UNL     1      26.159   3.002  50.814  1.00  0.00    +0.260 C 
ATOM      4  O   UNL     1      27.261   2.798  51.285  1.00  0.00    -0.269 OA
ATOM      5  N   UNL     1      25.828   3.889  49.803  1.00  0.00    -0.295 N 
ATOM      6  C   UNL     1      26.749   4.745  49.109  1.00  0.00    +0.155 C 
ATOM      7  C   UNL     1      24.459   3.871  49.525  1.00  0.00    +0.147 A 
ATOM      8  N   UNL     1      23.888   4.628  48.581  1.00  0.00    -0.218 NA
ATOM      9  C   UNL     1      22.568   4.460  48.482  1.00  0.00    +0.225 A 
ATOM     10  N   UNL     1      21.815   3.640  49.236  1.00  0.00    -0.234 NA
ATOM     11  C   UNL     1      22.441   2.915  50.210  1.00  0.00    +0.102 A 
ATOM     12  C   UNL     1      23.808   2.975  50.360  1.00  0.00    +0.058 A 
ENDROOT
BRANCH   1  13
ATOM     13  C   UNL     1      25.763   0.657  52.808  1.00  0.00    -0.025 A 
ATOM     14  C   UNL     1      27.416  -1.106  53.107  1.00  0.00    -0.051 A 
ATOM     15  C   UNL     1      27.827  -0.503  54.301  1.00  0.00    +0.003 A 
ATOM     16  C   UNL     1      26.376  -0.522  52.368  1.00  0.00    +0.011 A 
ATOM     17  C   UNL     1      27.226   0.678  54.738  1.00  0.00    +0.001 A 
ATOM     18  C   UNL     1      26.201   1.260  53.991  1.00  0.00    +0.008 A 
ATOM     19  C   UNL     1      28.029  -2.399  52.656  1.00  0.00    +0.044 C 
ENDBRANCH   1  13
BRANCH  11  20
ATOM     20  C   UNL     1      21.532   2.132  51.062  1.00  0.00    +0.089 A 
ATOM     21  C   UNL     1      21.284   2.487  52.389  1.00  0.00    +0.031 A 
ATOM     22  N   UNL     1      20.989   1.017  50.508  1.00  0.00    -0.255 NA
ATOM     23  C   UNL     1      20.443   1.690  53.162  1.00  0.00    +0.004 A 
ATOM     24  C   UNL     1      20.180   0.259  51.283  1.00  0.00    +0.112 A 
ATOM     25  C   UNL     1      19.877   0.554  52.600  1.00  0.00    +0.020 A 
ENDBRANCH  11  20
TORSDOF 2
ENDMDL
MODEL 8
REMARK VINA RESULT:    -8.354      1.975      5.351
REMARK INTER + INTRA:          -9.645
REMARK INTER:                  -9.423
REMARK INTRA:                  -0.222
REMARK UNBOUND:                -0.314
REMARK SMILES Cc1cccc(C=C2C(=O)N(C)c3ncnc(-c4ccccn4)c32)c1
REMARK SMILES IDX 7 1 8 2 9 3 10 4 11 5 12 6 13 7 14 8 15 9 16 10 17 11 24 12
REMARK SMILES IDX 6 13 2 14 3 15 25 16 4 17 5 18 1 19 18 20 19 21 23 22 20 23
REMARK SMILES IDX 22 24 21 25
REMARK H PARENT
ROOT
ATOM      1  C   UNL     1      24.510   2.552  51.526  1.00  0.00    +0.022 C 
ATOM      2  C   UNL     1      25.132   1.683  52.339  1.00  0.00    +0.054 C 
ATOM      3  C   UNL     1      26.615   1.646  52.619  1.00  0.00    +0.260 C 
ATOM      4  O   UNL     1      27.495   2.296  52.089  1.00  0.00    -0.269 OA
ATOM      5  N   UNL     1      26.755   0.713  53.633  1.00  0.00    -0.295 N 
ATOM      6  C   UNL     1      27.992   0.339  54.259  1.00  0.00    +0.155 C 
ATOM      7  C   UNL     1      25.528   0.148  53.989  1.00  0.00    +0.147 A 
ATOM      8  N   UNL     1      25.392  -0.771  54.953  1.00  0.00    -0.218 NA
ATOM      9  C   UNL     1      24.134  -1.181  55.130  1.00  0.00    +0.225 A 
ATOM     10  N   UNL     1      23.061  -0.769  54.434  1.00  0.00    -0.234 NA
ATOM     11  C   UNL     1      23.259   0.144  53.437  1.00  0.00    +0.102 A 
ATOM     12  C   UNL     1      24.510   0.672  53.207  1.00  0.00    +0.058 A 
ENDROOT
BRANCH   1  13
ATOM     13  C   UNL     1      25.141   3.577  50.689  1.00  0.00    -0.025 A 
ATOM     14  C   UNL     1      25.458   5.908  50.061  1.00  0.00    -0.051 A 
ATOM     15  C   UNL     1      26.422   5.514  49.125  1.00  0.00    +0.003 A 
ATOM     16  C   UNL     1      24.816   4.931  50.834  1.00  0.00    +0.011 A 
ATOM     17  C   UNL     1      26.757   4.167  48.983  1.00  0.00    +0.001 A 
ATOM     18  C   UNL     1      26.123   3.202  49.766  1.00  0.00    +0.008 A 
ATOM     19  C   UNL     1      25.063   7.350  50.185  1.00  0.00    +0.044 C 
ENDBRANCH   1  13
BRANCH  11  20
ATOM     20  C   UNL     1      22.054   0.455  52.651  1.00  0.00    +0.089 A 
ATOM     21  C   UNL     1      21.969   0.153  51.291  1.00  0.00    +0.031 A 
ATOM     22  N   UNL     1      21.052   1.099  53.304  1.00  0.00    -0.255 NA
ATOM     23  C   UNL     1      20.819   0.502  50.586  1.00  0.00    +0.004 A 
ATOM     24  C   UNL     1      19.950   1.431  52.594  1.00  0.00    +0.112 A 
ATOM     25  C   UNL     1      19.787   1.153  51.249  1.00  0.00    +0.020 A 
ENDBRANCH  11  20
TORSDOF 2
ENDMDL
MODEL 9
REMARK VINA RESULT:    -8.113      1.943      5.622
REMARK INTER + INTRA:          -9.375
REMARK INTER:                  -9.684
REMARK INTRA:                   0.310
REMARK UNBOUND:                -0.314
REMARK SMILES Cc1cccc(C=C2C(=O)N(C)c3ncnc(-c4ccccn4)c32)c1
REMARK SMILES IDX 7 1 8 2 9 3 10 4 11 5 12 6 13 7 14 8 15 9 16 10 17 11 24 12
REMARK SMILES IDX 6 13 2 14 3 15 25 16 4 17 5 18 1 19 18 20 19 21 23 22 20 23
REMARK SMILES IDX 22 24 21 25
REMARK H PARENT
ROOT
ATOM      1  C   UNL     1      25.279   2.129  51.800  1.00  0.00    +0.022 C 
ATOM      2  C   UNL     1      24.095   1.798  52.340  1.00  0.00    +0.054 C 
ATOM      3  C   UNL     1      22.773   2.460  52.033  1.00  0.00    +0.260 C 
ATOM      4  O   UNL     1      22.567   3.448  51.357  1.00  0.00    -0.269 OA
ATOM      5  N   UNL     1      21.833   1.677  52.684  1.00  0.00    -0.295 N 
ATOM      6  C   UNL     1      20.413   1.894  52.673  1.00  0.00    +0.155 C 
ATOM      7  C   UNL     1      22.430   0.625  53.383  1.00  0.00    +0.147 A 
ATOM      8  N   UNL     1      21.738  -0.282  54.083  1.00  0.00    -0.218 NA
ATOM      9  C   UNL     1      22.502  -1.200  54.677  1.00  0.00    +0.225 A 
ATOM     10  N   UNL     1      23.845  -1.261  54.636  1.00  0.00    -0.234 NA
ATOM     11  C   UNL     1      24.506  -0.291  53.937  1.00  0.00    +0.102 A 
ATOM     12  C   UNL     1      23.809   0.672  53.242  1.00  0.00    +0.058 A 
ENDROOT
BRANCH   1  13
ATOM     13  C   UNL     1      25.545   3.236  50.877  1.00  0.00    -0.025 A 
ATOM     14  C   UNL     1      25.198   5.538  50.164  1.00  0.00    -0.051 A 
ATOM     15  C   UNL     1      26.137   5.351  49.142  1.00  0.00    +0.003 A 
ATOM     16  C   UNL     1      24.903   4.471  51.024  1.00  0.00    +0.011 A 
ATOM     17  C   UNL     1      26.788   4.126  48.997  1.00  0.00    +0.001 A 
ATOM     18  C   UNL     1      26.497   3.073  49.866  1.00  0.00    +0.008 A 
ATOM     19  C   UNL     1      24.464   6.840  50.295  1.00  0.00    +0.044 C 
ENDBRANCH   1  13
BRANCH  11  20
ATOM     20  C   UNL     1      25.972  -0.365  54.036  1.00  0.00    +0.089 A 
ATOM     21  C   UNL     1      26.682   0.391  54.971  1.00  0.00    +0.031 A 
ATOM     22  N   UNL     1      26.603  -1.164  53.136  1.00  0.00    -0.255 NA
ATOM     23  C   UNL     1      28.072   0.310  54.998  1.00  0.00    +0.004 A 
ATOM     24  C   UNL     1      27.953  -1.218  53.182  1.00  0.00    +0.112 A 
ATOM     25  C   UNL     1      28.723  -0.511  54.088  1.00  0.00    +0.020 A 
ENDBRANCH  11  20
TORSDOF 2
ENDMDL
