MODEL 1
REMARK VINA RESULT:    -8.934      0.000      0.000
REMARK INTER + INTRA:         -12.130
REMARK INTER:                 -11.284
REMARK INTRA:                  -0.846
REMARK UNBOUND:                -0.846
REMARK SMILES Cc1cc(C)c(N(C)c2ccc(-c3cc(O)ccc3[N+](=O)[O-])[nH]2)[nH]1
REMARK SMILES IDX 9 1 10 2 11 3 12 4 23 5 7 7 8 8 6 9 2 10 3 11 24 12 4 13
REMARK SMILES IDX 1 14 5 16 13 17 14 18 19 19 15 20 18 21 17 22 20 23 21 24
REMARK SMILES IDX 22 25 16 26
REMARK H PARENT 23 6 24 15 16 27
ROOT
ATOM      1  C   UNL     1      24.312   1.773  51.733  1.00  0.00    +0.111 A 
ATOM      2  C   UNL     1      23.715   1.201  52.840  1.00  0.00    +0.047 A 
ATOM      3  C   UNL     1      24.673   0.374  53.480  1.00  0.00    +0.031 A 
ATOM      4  C   UNL     1      25.846   0.445  52.751  1.00  0.00    +0.054 A 
ATOM      5  N   UNL     1      25.580   1.243  51.662  1.00  0.00    -0.341 N 
ATOM      6  H   UNL     1      26.234   1.455  50.920  1.00  0.00    +0.168 HD
ENDROOT
BRANCH   1   7
ATOM      7  N   UNL     1      23.863   2.651  50.781  1.00  0.00    -0.317 N 
ATOM      8  C   UNL     1      22.827   2.172  49.857  1.00  0.00    +0.153 C 
BRANCH   7   9
ATOM      9  C   UNL     1      24.363   3.907  50.558  1.00  0.00    +0.114 A 
ATOM     10  C   UNL     1      24.305   6.163  50.636  1.00  0.00    +0.014 A 
ATOM     11  C   UNL     1      25.462   5.796  49.985  1.00  0.00    +0.028 A 
ATOM     12  N   UNL     1      23.644   5.007  50.966  1.00  0.00    -0.345 N 
ATOM     13  C   UNL     1      25.508   4.371  49.928  1.00  0.00    -0.008 A 
ATOM     14  C   UNL     1      23.755   7.496  50.980  1.00  0.00    +0.064 C 
ATOM     15  H   UNL     1      22.751   4.955  51.437  1.00  0.00    +0.168 HD
ATOM     16  C   UNL     1      26.610   3.572  49.331  1.00  0.00    +0.048 C 
ENDBRANCH   7   9
ENDBRANCH   1   7
BRANCH   4  17
ATOM     17  C   UNL     1      27.138  -0.198  52.970  1.00  0.00    +0.079 A 
ATOM     18  C   UNL     1      27.205  -1.599  52.902  1.00  0.00    +0.063 A 
ATOM     19  C   UNL     1      28.321   0.498  53.278  1.00  0.00    +0.278 A 
ATOM     20  C   UNL     1      28.414  -2.258  53.128  1.00  0.00    +0.116 A 
ATOM     21  C   UNL     1      29.534  -0.164  53.515  1.00  0.00    +0.090 A 
ATOM     22  C   UNL     1      29.574  -1.554  53.434  1.00  0.00    +0.053 A 
BRANCH  19  23
ATOM     23  N   UNL     1      28.323   1.944  53.394  1.00  0.00    +0.063 N 
ATOM     24  O   UNL     1      28.084   2.600  52.369  1.00  0.00    -0.258 OA
ATOM     25  O   UNL     1      28.612   2.419  54.500  1.00  0.00    -0.258 OA
ENDBRANCH  19  23
BRANCH  20  26
ATOM     26  O   UNL     1      28.504  -3.617  53.062  1.00  0.00    -0.508 OA
ATOM     27  H   UNL     1      28.725  -3.878  52.152  1.00  0.00    +0.293 HD
ENDBRANCH  20  26
ENDBRANCH   4  17
TORSDOF 5
ENDMDL
MODEL 2
REMARK VINA RESULT:    -8.639      0.815      1.533
REMARK INTER + INTRA:         -11.758
REMARK INTER:                 -10.870
REMARK INTRA:                  -0.888
REMARK UNBOUND:                -0.846
REMARK SMILES Cc1cc(C)c(N(C)c2ccc(-c3cc(O)ccc3[N+](=O)[O-])[nH]2)[nH]1
REMARK SMILES IDX 9 1 10 2 11 3 12 4 23 5 7 7 8 8 6 9 2 10 3 11 24 12 4 13
REMARK SMILES IDX 1 14 5 16 13 17 14 18 19 19 15 20 18 21 17 22 20 23 21 24
REMARK SMILES IDX 22 25 16 26
REMARK H PARENT 23 6 24 15 16 27
ROOT
ATOM      1  C   UNL     1      24.272   1.585  51.732  1.00  0.00    +0.111 A 
ATOM      2  C   UNL     1      23.689   1.015  52.848  1.00  0.00    +0.047 A 
ATOM      3  C   UNL     1      24.675   0.246  53.516  1.00  0.00    +0.031 A 
ATOM      4  C   UNL     1      25.851   0.350  52.796  1.00  0.00    +0.054 A 
ATOM      5  N   UNL     1      25.562   1.110  51.686  1.00  0.00    -0.341 N 
ATOM      6  H   UNL     1      26.213   1.332  50.944  1.00  0.00    +0.168 HD
ENDROOT
BRANCH   1   7
ATOM      7  N   UNL     1      23.794   2.420  50.755  1.00  0.00    -0.317 N 
ATOM      8  C   UNL     1      22.788   1.875  49.835  1.00  0.00    +0.153 C 
BRANCH   7   9
ATOM      9  C   UNL     1      24.242   3.690  50.505  1.00  0.00    +0.114 A 
ATOM     10  C   UNL     1      25.595   5.214  49.533  1.00  0.00    +0.014 A 
ATOM     11  C   UNL     1      24.739   5.890  50.375  1.00  0.00    +0.028 A 
ATOM     12  N   UNL     1      25.289   3.881  49.633  1.00  0.00    -0.345 N 
ATOM     13  C   UNL     1      23.880   4.935  50.997  1.00  0.00    -0.008 A 
ATOM     14  C   UNL     1      26.676   5.697  48.642  1.00  0.00    +0.064 C 
ATOM     15  H   UNL     1      25.761   3.132  49.145  1.00  0.00    +0.168 HD
ATOM     16  C   UNL     1      22.791   5.257  51.955  1.00  0.00    +0.048 C 
ENDBRANCH   7   9
ENDBRANCH   1   7
BRANCH   4  17
ATOM     17  C   UNL     1      27.168  -0.230  53.043  1.00  0.00    +0.079 A 
ATOM     18  C   UNL     1      27.291  -1.629  53.035  1.00  0.00    +0.063 A 
ATOM     19  C   UNL     1      28.321   0.526  53.320  1.00  0.00    +0.278 A 
ATOM     20  C   UNL     1      28.526  -2.229  53.289  1.00  0.00    +0.116 A 
ATOM     21  C   UNL     1      29.560  -0.076  53.585  1.00  0.00    +0.090 A 
ATOM     22  C   UNL     1      29.656  -1.466  53.564  1.00  0.00    +0.053 A 
BRANCH  19  23
ATOM     23  N   UNL     1      28.265   1.974  53.374  1.00  0.00    +0.063 N 
ATOM     24  O   UNL     1      28.020   2.576  52.317  1.00  0.00    -0.258 OA
ATOM     25  O   UNL     1      28.515   2.507  54.463  1.00  0.00    -0.258 OA
ENDBRANCH  19  23
BRANCH  20  26
ATOM     26  O   UNL     1      28.670  -3.584  53.281  1.00  0.00    -0.508 OA
ATOM     27  H   UNL     1      28.757  -3.891  52.363  1.00  0.00    +0.293 HD
ENDBRANCH  20  26
ENDBRANCH   4  17
TORSDOF 5
ENDMDL
MODEL 3
REMARK VINA RESULT:    -8.613      1.891      2.936
REMARK INTER + INTRA:         -11.725
REMARK INTER:                 -10.947
REMARK INTRA:                  -0.777
REMARK UNBOUND:                -0.846
REMARK SMILES Cc1cc(C)c(N(C)c2ccc(-c3cc(O)ccc3[N+](=O)[O-])[nH]2)[nH]1
REMARK SMILES IDX 9 1 10 2 11 3 12 4 23 5 7 7 8 8 6 9 2 10 3 11 24 12 4 13
REMARK SMILES IDX 1 14 5 16 13 17 14 18 19 19 15 20 18 21 17 22 20 23 21 24
REMARK SMILES IDX 22 25 16 26
REMARK H PARENT 23 6 24 15 16 27
ROOT
ATOM      1  C   UNL     1      23.841   1.357  52.319  1.00  0.00    +0.111 A 
ATOM      2  C   UNL     1      23.397   0.544  53.344  1.00  0.00    +0.047 A 
ATOM      3  C   UNL     1      24.498  -0.218  53.812  1.00  0.00    +0.031 A 
ATOM      4  C   UNL     1      25.604   0.134  53.061  1.00  0.00    +0.054 A 
ATOM      5  N   UNL     1      25.165   1.038  52.120  1.00  0.00    -0.341 N 
ATOM      6  H   UNL     1      25.738   1.452  51.397  1.00  0.00    +0.168 HD
ENDROOT
BRANCH   1   7
ATOM      7  N   UNL     1      23.217   2.290  51.533  1.00  0.00    -0.317 N 
ATOM      8  C   UNL     1      23.161   3.668  52.038  1.00  0.00    +0.153 C 
BRANCH   7   9
ATOM      9  C   UNL     1      22.560   2.031  50.359  1.00  0.00    +0.114 A 
ATOM     10  C   UNL     1      22.131   2.320  48.161  1.00  0.00    +0.014 A 
ATOM     11  C   UNL     1      21.241   1.386  48.643  1.00  0.00    +0.028 A 
ATOM     12  N   UNL     1      22.915   2.710  49.217  1.00  0.00    -0.345 N 
ATOM     13  C   UNL     1      21.501   1.197  50.032  1.00  0.00    -0.008 A 
ATOM     14  C   UNL     1      22.319   2.887  46.805  1.00  0.00    +0.064 C 
ATOM     15  H   UNL     1      23.652   3.402  49.177  1.00  0.00    +0.168 HD
ATOM     16  C   UNL     1      20.778   0.249  50.919  1.00  0.00    +0.048 C 
ENDBRANCH   7   9
ENDBRANCH   1   7
BRANCH   4  17
ATOM     17  C   UNL     1      26.985  -0.335  53.131  1.00  0.00    +0.079 A 
ATOM     18  C   UNL     1      27.217  -1.719  53.161  1.00  0.00    +0.063 A 
ATOM     19  C   UNL     1      28.102   0.517  53.202  1.00  0.00    +0.278 A 
ATOM     20  C   UNL     1      28.519  -2.213  53.251  1.00  0.00    +0.116 A 
ATOM     21  C   UNL     1      29.410   0.022  53.303  1.00  0.00    +0.090 A 
ATOM     22  C   UNL     1      29.613  -1.356  53.323  1.00  0.00    +0.053 A 
BRANCH  19  23
ATOM     23  N   UNL     1      27.939   1.958  53.207  1.00  0.00    +0.063 N 
ATOM     24  O   UNL     1      27.732   2.512  52.116  1.00  0.00    -0.258 OA
ATOM     25  O   UNL     1      28.067   2.536  54.294  1.00  0.00    -0.258 OA
ENDBRANCH  19  23
BRANCH  20  26
ATOM     26  O   UNL     1      28.769  -3.553  53.275  1.00  0.00    -0.508 OA
ATOM     27  H   UNL     1      29.716  -3.705  53.120  1.00  0.00    +0.293 HD
ENDBRANCH  20  26
ENDBRANCH   4  17
TORSDOF 5
ENDMDL
MODEL 4
REMARK VINA RESULT:    -7.956      1.992      3.447
REMARK INTER + INTRA:         -10.895
REMARK INTER:                 -10.194
REMARK INTRA:                  -0.701
REMARK UNBOUND:                -0.846
REMARK SMILES Cc1cc(C)c(N(C)c2ccc(-c3cc(O)ccc3[N+](=O)[O-])[nH]2)[nH]1
REMARK SMILES IDX 9 1 10 2 11 3 12 4 23 5 7 7 8 8 6 9 2 10 3 11 24 12 4 13
REMARK SMILES IDX 1 14 5 16 13 17 14 18 19 19 15 20 18 21 17 22 20 23 21 24
REMARK SMILES IDX 22 25 16 26
REMARK H PARENT 23 6 24 15 16 27
ROOT
ATOM      1  C   UNL     1      23.437   1.015  52.359  1.00  0.00    +0.111 A 
ATOM      2  C   UNL     1      23.053   0.071  53.292  1.00  0.00    +0.047 A 
ATOM      3  C   UNL     1      24.213  -0.624  53.719  1.00  0.00    +0.031 A 
ATOM      4  C   UNL     1      25.294  -0.102  53.035  1.00  0.00    +0.054 A 
ATOM      5  N   UNL     1      24.789   0.841  52.169  1.00  0.00    -0.341 N 
ATOM      6  H   UNL     1      25.333   1.374  51.503  1.00  0.00    +0.168 HD
ENDROOT
BRANCH   1   7
ATOM      7  N   UNL     1      22.742   1.955  51.644  1.00  0.00    -0.317 N 
ATOM      8  C   UNL     1      23.286   3.319  51.616  1.00  0.00    +0.153 C 
BRANCH   7   9
ATOM      9  C   UNL     1      21.533   1.756  51.031  1.00  0.00    +0.114 A 
ATOM     10  C   UNL     1      19.288   1.521  50.991  1.00  0.00    +0.014 A 
ATOM     11  C   UNL     1      19.750   1.352  49.705  1.00  0.00    +0.028 A 
ATOM     12  N   UNL     1      20.382   1.752  51.785  1.00  0.00    -0.345 N 
ATOM     13  C   UNL     1      21.169   1.496  49.719  1.00  0.00    -0.008 A 
ATOM     14  C   UNL     1      17.916   1.485  51.552  1.00  0.00    +0.064 C 
ATOM     15  H   UNL     1      20.362   1.897  52.786  1.00  0.00    +0.168 HD
ATOM     16  C   UNL     1      22.051   1.414  48.526  1.00  0.00    +0.048 C 
ENDBRANCH   7   9
ENDBRANCH   1   7
BRANCH   4  17
ATOM     17  C   UNL     1      26.712  -0.443  53.100  1.00  0.00    +0.079 A 
ATOM     18  C   UNL     1      27.069  -1.801  53.139  1.00  0.00    +0.063 A 
ATOM     19  C   UNL     1      27.748   0.506  53.158  1.00  0.00    +0.278 A 
ATOM     20  C   UNL     1      28.411  -2.175  53.225  1.00  0.00    +0.116 A 
ATOM     21  C   UNL     1      29.097   0.132  53.255  1.00  0.00    +0.090 A 
ATOM     22  C   UNL     1      29.423  -1.222  53.284  1.00  0.00    +0.053 A 
BRANCH  19  23
ATOM     23  N   UNL     1      27.456   1.927  53.153  1.00  0.00    +0.063 N 
ATOM     24  O   UNL     1      27.050   2.430  54.212  1.00  0.00    -0.258 OA
ATOM     25  O   UNL     1      27.586   2.525  52.076  1.00  0.00    -0.258 OA
ENDBRANCH  19  23
BRANCH  20  26
ATOM     26  O   UNL     1      28.780  -3.486  53.258  1.00  0.00    -0.508 OA
ATOM     27  H   UNL     1      27.993  -4.036  53.408  1.00  0.00    +0.293 HD
ENDBRANCH  20  26
ENDBRANCH   4  17
TORSDOF 5
ENDMDL
MODEL 5
REMARK VINA RESULT:    -7.514      2.232      4.402
REMARK INTER + INTRA:         -10.336
REMARK INTER:                  -9.434
REMARK INTRA:                  -0.903
REMARK UNBOUND:                -0.846
REMARK SMILES Cc1cc(C)c(N(C)c2ccc(-c3cc(O)ccc3[N+](=O)[O-])[nH]2)[nH]1
REMARK SMILES IDX 9 1 10 2 11 3 12 4 23 5 7 7 8 8 6 9 2 10 3 11 24 12 4 13
REMARK SMILES IDX 1 14 5 16 13 17 14 18 19 19 15 20 18 21 17 22 20 23 21 24
REMARK SMILES IDX 22 25 16 26
REMARK H PARENT 23 6 24 15 16 27
ROOT
ATOM      1  C   UNL     1      24.325   2.832  51.031  1.00  0.00    +0.111 A 
ATOM      2  C   UNL     1      25.316   3.199  50.141  1.00  0.00    +0.047 A 
ATOM      3  C   UNL     1      26.564   2.795  50.679  1.00  0.00    +0.031 A 
ATOM      4  C   UNL     1      26.323   2.191  51.898  1.00  0.00    +0.054 A 
ATOM      5  N   UNL     1      24.967   2.287  52.119  1.00  0.00    -0.341 N 
ATOM      6  H   UNL     1      24.487   1.967  52.950  1.00  0.00    +0.168 HD
ENDROOT
BRANCH   1   7
ATOM      7  N   UNL     1      22.960   2.960  51.011  1.00  0.00    -0.317 N 
ATOM      8  C   UNL     1      22.412   4.300  50.770  1.00  0.00    +0.153 C 
BRANCH   7   9
ATOM      9  C   UNL     1      22.064   1.962  51.290  1.00  0.00    +0.114 A 
ATOM     10  C   UNL     1      20.860   0.636  52.665  1.00  0.00    +0.014 A 
ATOM     11  C   UNL     1      20.600   0.244  51.371  1.00  0.00    +0.028 A 
ATOM     12  N   UNL     1      21.759   1.669  52.600  1.00  0.00    -0.345 N 
ATOM     13  C   UNL     1      21.357   1.075  50.493  1.00  0.00    -0.008 A 
ATOM     14  C   UNL     1      20.349   0.133  53.963  1.00  0.00    +0.064 C 
ATOM     15  H   UNL     1      22.155   2.155  53.394  1.00  0.00    +0.168 HD
ATOM     16  C   UNL     1      21.337   0.998  49.009  1.00  0.00    +0.048 C 
ENDBRANCH   7   9
ENDBRANCH   1   7
BRANCH   4  17
ATOM     17  C   UNL     1      27.245   1.591  52.859  1.00  0.00    +0.079 A 
ATOM     18  C   UNL     1      28.230   2.409  53.434  1.00  0.00    +0.063 A 
ATOM     19  C   UNL     1      27.228   0.233  53.222  1.00  0.00    +0.278 A 
ATOM     20  C   UNL     1      29.149   1.874  54.340  1.00  0.00    +0.116 A 
ATOM     21  C   UNL     1      28.157  -0.308  54.124  1.00  0.00    +0.090 A 
ATOM     22  C   UNL     1      29.119   0.527  54.686  1.00  0.00    +0.053 A 
BRANCH  19  23
ATOM     23  N   UNL     1      26.259  -0.680  52.646  1.00  0.00    +0.063 N 
ATOM     24  O   UNL     1      25.110  -0.661  53.115  1.00  0.00    -0.258 OA
ATOM     25  O   UNL     1      26.662  -1.445  51.761  1.00  0.00    -0.258 OA
ENDBRANCH  19  23
BRANCH  20  26
ATOM     26  O   UNL     1      30.110   2.651  54.915  1.00  0.00    -0.508 OA
ATOM     27  H   UNL     1      29.951   3.581  54.682  1.00  0.00    +0.293 HD
ENDBRANCH  20  26
ENDBRANCH   4  17
TORSDOF 5
ENDMDL
MODEL 6
REMARK VINA RESULT:    -7.430      1.682      3.471
REMARK INTER + INTRA:         -10.231
REMARK INTER:                 -10.397
REMARK INTRA:                   0.166
REMARK UNBOUND:                -0.846
REMARK SMILES Cc1cc(C)c(N(C)c2ccc(-c3cc(O)ccc3[N+](=O)[O-])[nH]2)[nH]1
REMARK SMILES IDX 9 1 10 2 11 3 12 4 23 5 7 7 8 8 6 9 2 10 3 11 24 12 4 13
REMARK SMILES IDX 1 14 5 16 13 17 14 18 19 19 15 20 18 21 17 22 20 23 21 24
REMARK SMILES IDX 22 25 16 26
REMARK H PARENT 23 6 24 15 16 27
ROOT
ATOM      1  C   UNL     1      23.618   0.407  52.822  1.00  0.00    +0.111 A 
ATOM      2  C   UNL     1      23.508  -0.482  53.873  1.00  0.00    +0.047 A 
ATOM      3  C   UNL     1      24.812  -0.758  54.357  1.00  0.00    +0.031 A 
ATOM      4  C   UNL     1      25.708  -0.037  53.590  1.00  0.00    +0.054 A 
ATOM      5  N   UNL     1      24.966   0.606  52.625  1.00  0.00    -0.341 N 
ATOM      6  H   UNL     1      25.344   1.184  51.886  1.00  0.00    +0.168 HD
ENDROOT
BRANCH   1   7
ATOM      7  N   UNL     1      22.693   1.012  52.012  1.00  0.00    -0.317 N 
ATOM      8  C   UNL     1      21.275   0.779  52.316  1.00  0.00    +0.153 C 
BRANCH   7   9
ATOM      9  C   UNL     1      22.975   1.740  50.886  1.00  0.00    +0.114 A 
ATOM     10  C   UNL     1      24.075   3.324  49.711  1.00  0.00    +0.014 A 
ATOM     11  C   UNL     1      23.131   2.764  48.879  1.00  0.00    +0.028 A 
ATOM     12  N   UNL     1      23.960   2.701  50.927  1.00  0.00    -0.345 N 
ATOM     13  C   UNL     1      22.428   1.763  49.612  1.00  0.00    -0.008 A 
ATOM     14  C   UNL     1      25.078   4.390  49.478  1.00  0.00    +0.064 C 
ATOM     15  H   UNL     1      24.510   2.911  51.750  1.00  0.00    +0.168 HD
ATOM     16  C   UNL     1      21.345   0.903  49.068  1.00  0.00    +0.048 C 
ENDBRANCH   7   9
ENDBRANCH   1   7
BRANCH   4  17
ATOM     17  C   UNL     1      27.163   0.053  53.665  1.00  0.00    +0.079 A 
ATOM     18  C   UNL     1      27.733   1.245  54.139  1.00  0.00    +0.063 A 
ATOM     19  C   UNL     1      28.036  -0.973  53.260  1.00  0.00    +0.278 A 
ATOM     20  C   UNL     1      29.120   1.385  54.206  1.00  0.00    +0.116 A 
ATOM     21  C   UNL     1      29.431  -0.830  53.317  1.00  0.00    +0.090 A 
ATOM     22  C   UNL     1      29.969   0.361  53.799  1.00  0.00    +0.053 A 
BRANCH  19  23
ATOM     23  N   UNL     1      27.522  -2.222  52.731  1.00  0.00    +0.063 N 
ATOM     24  O   UNL     1      28.044  -3.272  53.137  1.00  0.00    -0.258 OA
ATOM     25  O   UNL     1      26.631  -2.146  51.875  1.00  0.00    -0.258 OA
ENDBRANCH  19  23
BRANCH  20  26
ATOM     26  O   UNL     1      29.695   2.531  54.669  1.00  0.00    -0.508 OA
ATOM     27  H   UNL     1      29.297   3.294  54.217  1.00  0.00    +0.293 HD
ENDBRANCH  20  26
ENDBRANCH   4  17
TORSDOF 5
ENDMDL
MODEL 7
REMARK VINA RESULT:    -7.397      3.206      4.681
REMARK INTER + INTRA:         -10.189
REMARK INTER:                  -9.353
REMARK INTRA:                  -0.836
REMARK UNBOUND:                -0.846
REMARK SMILES Cc1cc(C)c(N(C)c2ccc(-c3cc(O)ccc3[N+](=O)[O-])[nH]2)[nH]1
REMARK SMILES IDX 9 1 10 2 11 3 12 4 23 5 7 7 8 8 6 9 2 10 3 11 24 12 4 13
REMARK SMILES IDX 1 14 5 16 13 17 14 18 19 19 15 20 18 21 17 22 20 23 21 24
REMARK SMILES IDX 22 25 16 26
REMARK H PARENT 23 6 24 15 16 27
ROOT
ATOM      1  C   UNL     1      25.570   2.438  51.019  1.00  0.00    +0.111 A 
ATOM      2  C   UNL     1      26.524   1.606  51.572  1.00  0.00    +0.047 A 
ATOM      3  C   UNL     1      25.863   0.668  52.404  1.00  0.00    +0.031 A 
ATOM      4  C   UNL     1      24.509   0.942  52.356  1.00  0.00    +0.054 A 
ATOM      5  N   UNL     1      24.365   2.059  51.565  1.00  0.00    -0.341 N 
ATOM      6  H   UNL     1      23.490   2.527  51.369  1.00  0.00    +0.168 HD
ENDROOT
BRANCH   1   7
ATOM      7  N   UNL     1      25.645   3.491  50.145  1.00  0.00    -0.317 N 
ATOM      8  C   UNL     1      26.893   3.651  49.387  1.00  0.00    +0.153 C 
BRANCH   7   9
ATOM      9  C   UNL     1      24.693   4.463  49.985  1.00  0.00    +0.114 A 
ATOM     10  C   UNL     1      23.790   6.503  50.335  1.00  0.00    +0.014 A 
ATOM     11  C   UNL     1      22.919   5.789  49.542  1.00  0.00    +0.028 A 
ATOM     12  N   UNL     1      24.854   5.681  50.605  1.00  0.00    -0.345 N 
ATOM     13  C   UNL     1      23.479   4.497  49.316  1.00  0.00    -0.008 A 
ATOM     14  C   UNL     1      23.722   7.884  50.869  1.00  0.00    +0.064 C 
ATOM     15  H   UNL     1      25.650   5.920  51.182  1.00  0.00    +0.168 HD
ATOM     16  C   UNL     1      22.865   3.429  48.484  1.00  0.00    +0.048 C 
ENDBRANCH   7   9
ENDBRANCH   1   7
BRANCH   4  17
ATOM     17  C   UNL     1      23.384   0.282  53.012  1.00  0.00    +0.079 A 
ATOM     18  C   UNL     1      23.648  -0.536  54.122  1.00  0.00    +0.063 A 
ATOM     19  C   UNL     1      22.049   0.389  52.582  1.00  0.00    +0.278 A 
ATOM     20  C   UNL     1      22.607  -1.206  54.767  1.00  0.00    +0.116 A 
ATOM     21  C   UNL     1      21.003  -0.292  53.223  1.00  0.00    +0.090 A 
ATOM     22  C   UNL     1      21.292  -1.091  54.327  1.00  0.00    +0.053 A 
BRANCH  19  23
ATOM     23  N   UNL     1      21.703   1.192  51.425  1.00  0.00    +0.063 N 
ATOM     24  O   UNL     1      21.368   2.369  51.626  1.00  0.00    -0.258 OA
ATOM     25  O   UNL     1      21.720   0.628  50.323  1.00  0.00    -0.258 OA
ENDBRANCH  19  23
BRANCH  20  26
ATOM     26  O   UNL     1      22.839  -2.001  55.850  1.00  0.00    -0.508 OA
ATOM     27  H   UNL     1      22.207  -1.775  56.553  1.00  0.00    +0.293 HD
ENDBRANCH  20  26
ENDBRANCH   4  17
TORSDOF 5
ENDMDL
MODEL 8
REMARK VINA RESULT:    -7.369      3.183      4.635
REMARK INTER + INTRA:         -10.153
REMARK INTER:                  -9.465
REMARK INTRA:                  -0.688
REMARK UNBOUND:                -0.846
REMARK SMILES Cc1cc(C)c(N(C)c2ccc(-c3cc(O)ccc3[N+](=O)[O-])[nH]2)[nH]1
REMARK SMILES IDX 9 1 10 2 11 3 12 4 23 5 7 7 8 8 6 9 2 10 3 11 24 12 4 13
REMARK SMILES IDX 1 14 5 16 13 17 14 18 19 19 15 20 18 21 17 22 20 23 21 24
REMARK SMILES IDX 22 25 16 26
REMARK H PARENT 23 6 24 15 16 27
ROOT
ATOM      1  C   UNL     1      23.392   3.459  50.509  1.00  0.00    +0.111 A 
ATOM      2  C   UNL     1      22.788   2.708  49.519  1.00  0.00    +0.047 A 
ATOM      3  C   UNL     1      22.308   1.510  50.107  1.00  0.00    +0.031 A 
ATOM      4  C   UNL     1      22.631   1.540  51.451  1.00  0.00    +0.054 A 
ATOM      5  N   UNL     1      23.346   2.698  51.654  1.00  0.00    -0.341 N 
ATOM      6  H   UNL     1      23.755   2.985  52.533  1.00  0.00    +0.168 HD
ENDROOT
BRANCH   1   7
ATOM      7  N   UNL     1      24.001   4.688  50.505  1.00  0.00    -0.317 N 
ATOM      8  C   UNL     1      23.329   5.775  51.228  1.00  0.00    +0.153 C 
BRANCH   7   9
ATOM      9  C   UNL     1      25.134   5.012  49.807  1.00  0.00    +0.114 A 
ATOM     10  C   UNL     1      26.453   6.388  48.595  1.00  0.00    +0.014 A 
ATOM     11  C   UNL     1      27.093   5.172  48.694  1.00  0.00    +0.028 A 
ATOM     12  N   UNL     1      25.261   6.270  49.264  1.00  0.00    -0.345 N 
ATOM     13  C   UNL     1      26.268   4.294  49.456  1.00  0.00    -0.008 A 
ATOM     14  C   UNL     1      26.848   7.653  47.932  1.00  0.00    +0.064 C 
ATOM     15  H   UNL     1      24.562   6.996  49.351  1.00  0.00    +0.168 HD
ATOM     16  C   UNL     1      26.609   2.893  49.818  1.00  0.00    +0.048 C 
ENDBRANCH   7   9
ENDBRANCH   1   7
BRANCH   4  17
ATOM     17  C   UNL     1      22.366   0.572  52.511  1.00  0.00    +0.079 A 
ATOM     18  C   UNL     1      21.036   0.186  52.743  1.00  0.00    +0.063 A 
ATOM     19  C   UNL     1      23.360   0.022  53.341  1.00  0.00    +0.278 A 
ATOM     20  C   UNL     1      20.732  -0.718  53.763  1.00  0.00    +0.116 A 
ATOM     21  C   UNL     1      23.055  -0.879  54.372  1.00  0.00    +0.090 A 
ATOM     22  C   UNL     1      21.728  -1.251  54.575  1.00  0.00    +0.053 A 
BRANCH  19  23
ATOM     23  N   UNL     1      24.752   0.396  53.181  1.00  0.00    +0.063 N 
ATOM     24  O   UNL     1      25.090   1.523  53.578  1.00  0.00    -0.258 OA
ATOM     25  O   UNL     1      25.493  -0.418  52.615  1.00  0.00    -0.258 OA
ENDBRANCH  19  23
BRANCH  20  26
ATOM     26  O   UNL     1      19.449  -1.112  54.002  1.00  0.00    -0.508 OA
ATOM     27  H   UNL     1      19.196  -0.845  54.901  1.00  0.00    +0.293 HD
ENDBRANCH  20  26
ENDBRANCH   4  17
TORSDOF 5
ENDMDL
MODEL 9
REMARK VINA RESULT:    -7.284      3.262      4.867
REMARK INTER + INTRA:         -10.047
REMARK INTER:                  -9.481
REMARK INTRA:                  -0.566
REMARK UNBOUND:                -0.846
REMARK SMILES Cc1cc(C)c(N(C)c2ccc(-c3cc(O)ccc3[N+](=O)[O-])[nH]2)[nH]1
REMARK SMILES IDX 9 1 10 2 11 3 12 4 23 5 7 7 8 8 6 9 2 10 3 11 24 12 4 13
REMARK SMILES IDX 1 14 5 16 13 17 14 18 19 19 15 20 18 21 17 22 20 23 21 24
REMARK SMILES IDX 22 25 16 26
REMARK H PARENT 23 6 24 15 16 27
ROOT
ATOM      1  C   UNL     1      23.527   3.486  50.640  1.00  0.00    +0.111 A 
ATOM      2  C   UNL     1      22.835   2.661  49.774  1.00  0.00    +0.047 A 
ATOM      3  C   UNL     1      22.467   1.488  50.482  1.00  0.00    +0.031 A 
ATOM      4  C   UNL     1      22.945   1.607  51.773  1.00  0.00    +0.054 A 
ATOM      5  N   UNL     1      23.641   2.794  51.824  1.00  0.00    -0.341 N 
ATOM      6  H   UNL     1      24.141   3.143  52.630  1.00  0.00    +0.168 HD
ENDROOT
BRANCH   1   7
ATOM      7  N   UNL     1      24.089   4.727  50.494  1.00  0.00    -0.317 N 
ATOM      8  C   UNL     1      23.352   5.871  51.046  1.00  0.00    +0.153 C 
BRANCH   7   9
ATOM      9  C   UNL     1      25.235   5.004  49.796  1.00  0.00    +0.114 A 
ATOM     10  C   UNL     1      26.591   6.310  48.549  1.00  0.00    +0.014 A 
ATOM     11  C   UNL     1      27.206   5.087  48.697  1.00  0.00    +0.028 A 
ATOM     12  N   UNL     1      25.391   6.240  49.210  1.00  0.00    -0.345 N 
ATOM     13  C   UNL     1      26.357   4.252  49.482  1.00  0.00    -0.008 A 
ATOM     14  C   UNL     1      27.016   7.543  47.844  1.00  0.00    +0.064 C 
ATOM     15  H   UNL     1      24.705   6.981  49.265  1.00  0.00    +0.168 HD
ATOM     16  C   UNL     1      26.667   2.859  49.896  1.00  0.00    +0.048 C 
ENDBRANCH   7   9
ENDBRANCH   1   7
BRANCH   4  17
ATOM     17  C   UNL     1      22.840   0.698  52.911  1.00  0.00    +0.079 A 
ATOM     18  C   UNL     1      24.018   0.126  53.417  1.00  0.00    +0.063 A 
ATOM     19  C   UNL     1      21.624   0.331  53.515  1.00  0.00    +0.278 A 
ATOM     20  C   UNL     1      23.964  -0.768  54.488  1.00  0.00    +0.116 A 
ATOM     21  C   UNL     1      21.567  -0.574  54.585  1.00  0.00    +0.090 A 
ATOM     22  C   UNL     1      22.752  -1.121  55.073  1.00  0.00    +0.053 A 
BRANCH  19  23
ATOM     23  N   UNL     1      20.363   0.858  53.027  1.00  0.00    +0.063 N 
ATOM     24  O   UNL     1      19.636   0.088  52.379  1.00  0.00    -0.258 OA
ATOM     25  O   UNL     1      20.127   2.052  53.252  1.00  0.00    -0.258 OA
ENDBRANCH  19  23
BRANCH  20  26
ATOM     26  O   UNL     1      25.095  -1.330  55.000  1.00  0.00    -0.508 OA
ATOM     27  H   UNL     1      25.530  -0.692  55.591  1.00  0.00    +0.293 HD
ENDBRANCH  20  26
ENDBRANCH   4  17
TORSDOF 5
ENDMDL
