REMARK SMILES CCN(c1ccccc1)c1[nH]c(-c2ccc(O)c([N+](=O)[O-])c2)cc1C
REMARK SMILES IDX 10 1 11 2 12 3 23 4 24 5 25 6 3 8 2 9 1 10 4 11 5 12 9 13
REMARK SMILES IDX 6 14 8 15 7 16 13 17 14 18 22 19 15 20 18 21 16 22 19 23
REMARK SMILES IDX 20 24 21 25 17 26
REMARK H PARENT 11 7 17 27
ROOT
ATOM      1  C   UNL     1       0.718  -0.508  -0.219  1.00  0.00    +0.113 A 
ATOM      2  N   UNL     1      -0.482  -0.168   0.352  1.00  0.00    -0.341 N 
ATOM      3  C   UNL     1      -1.501  -0.206  -0.575  1.00  0.00    +0.048 A 
ATOM      4  C   UNL     1      -0.912  -0.579  -1.771  1.00  0.00    +0.034 A 
ATOM      5  C   UNL     1       0.483  -0.779  -1.556  1.00  0.00    -0.008 A 
ATOM      6  C   UNL     1       1.467  -1.216  -2.580  1.00  0.00    +0.048 C 
ATOM      7  H   UNL     1      -0.575   0.135   1.309  1.00  0.00    +0.168 HD
ENDROOT
BRANCH   1   8
ATOM      8  N   UNL     1       1.854  -0.515   0.544  1.00  0.00    -0.328 N 
BRANCH   8   9
ATOM      9  C   UNL     1       1.893  -1.445   1.690  1.00  0.00    +0.121 C 
ATOM     10  C   UNL     1       2.095  -2.888   1.243  1.00  0.00    +0.028 C 
ENDBRANCH   8   9
BRANCH   8  11
ATOM     11  C   UNL     1       3.054   0.118   0.134  1.00  0.00    +0.042 A 
ATOM     12  C   UNL     1       3.007   1.263  -0.687  1.00  0.00    +0.026 A 
ATOM     13  C   UNL     1       4.332  -0.319   0.522  1.00  0.00    +0.026 A 
ATOM     14  C   UNL     1       4.165   1.927  -1.107  1.00  0.00    +0.002 A 
ATOM     15  C   UNL     1       5.496   0.340   0.104  1.00  0.00    +0.002 A 
ATOM     16  C   UNL     1       5.412   1.463  -0.711  1.00  0.00    +0.000 A 
ENDBRANCH   8  11
ENDBRANCH   1   8
BRANCH   3  17
ATOM     17  C   UNL     1      -2.891   0.127  -0.259  1.00  0.00    +0.005 A 
ATOM     18  C   UNL     1      -3.705   0.741  -1.221  1.00  0.00    +0.014 A 
ATOM     19  C   UNL     1      -3.439  -0.167   0.997  1.00  0.00    +0.100 A 
ATOM     20  C   UNL     1      -5.036   1.062  -0.938  1.00  0.00    +0.054 A 
ATOM     21  C   UNL     1      -4.778   0.156   1.281  1.00  0.00    +0.311 A 
ATOM     22  C   UNL     1      -5.579   0.771   0.311  1.00  0.00    +0.194 A 
BRANCH  21  23
ATOM     23  N   UNL     1      -5.310  -0.163   2.607  1.00  0.00    +0.066 N 
ATOM     24  O   UNL     1      -6.514   0.063   2.810  1.00  0.00    -0.258 OA
ATOM     25  O   UNL     1      -4.534  -0.632   3.450  1.00  0.00    -0.258 OA
ENDBRANCH  21  23
BRANCH  22  26
ATOM     26  O   UNL     1      -6.889   1.129   0.475  1.00  0.00    -0.502 OA
ATOM     27  H   UNL     1      -7.202   0.859   1.364  1.00  0.00    +0.293 HD
ENDBRANCH  22  26
ENDBRANCH   3  17
TORSDOF 6
