MODEL 1
REMARK VINA RESULT:    -7.770      0.000      0.000
REMARK INTER + INTRA:          -9.767
REMARK INTER:                  -9.587
REMARK INTRA:                  -0.180
REMARK UNBOUND:                -0.180
REMARK SMILES N#CC(C#N)=C(C#N)C(N)=C(C#N)C(N)=Cc1ccccc1
REMARK SMILES IDX 9 1 11 2 12 3 13 4 6 5 1 6 2 7 3 8 4 9 5 10 7 11 8 12 10 13
REMARK SMILES IDX 14 16 16 17 15 18 17 21 18 22 22 23 19 24 21 25 20 26
REMARK H PARENT 10 14 10 15 15 19 15 20
ROOT
ATOM      1  C   UNL     1      26.238   0.705  52.870  1.00  0.00    +0.072 C 
ATOM      2  C   UNL     1      25.162   0.352  53.635  1.00  0.00    +0.099 C 
ATOM      3  C   UNL     1      25.373  -0.316  54.889  1.00  0.00    +0.104 C 
ATOM      4  N   UNL     1      25.605  -0.874  55.879  1.00  0.00    -0.192 NA
ENDROOT
BRANCH   1   5
ATOM      5  C   UNL     1      27.621   0.416  53.303  1.00  0.00    +0.105 C 
ATOM      6  N   UNL     1      26.893  -2.742  52.091  1.00  0.00    -0.192 NA
ATOM      7  C   UNL     1      27.497  -1.887  52.589  1.00  0.00    +0.112 C 
ATOM      8  C   UNL     1      28.202  -0.799  53.179  1.00  0.00    +0.149 C 
ATOM      9  C   UNL     1      29.539  -1.040  53.603  1.00  0.00    +0.112 C 
ATOM     10  N   UNL     1      30.633  -1.238  53.934  1.00  0.00    -0.192 NA
ATOM     11  C   UNL     1      28.331   1.522  53.873  1.00  0.00    +0.104 C 
ATOM     12  N   UNL     1      28.906   2.414  54.341  1.00  0.00    -0.192 NA
ENDBRANCH   1   5
BRANCH   1  13
ATOM     13  N   UNL     1      26.142   1.359  51.643  1.00  0.00    -0.396 N 
ATOM     14  H   UNL     1      26.340   2.357  51.668  1.00  0.00    +0.156 HD
ATOM     15  H   UNL     1      26.726   0.902  50.928  1.00  0.00    +0.156 HD
ENDBRANCH   1  13
BRANCH   2  16
ATOM     16  C   UNL     1      23.757   0.630  53.238  1.00  0.00    +0.052 C 
ATOM     17  C   UNL     1      22.899  -0.388  53.001  1.00  0.00    +0.035 C 
BRANCH  16  18
ATOM     18  N   UNL     1      23.374   1.968  53.130  1.00  0.00    -0.398 N 
ATOM     19  H   UNL     1      23.925   2.576  53.738  1.00  0.00    +0.156 HD
ATOM     20  H   UNL     1      23.420   2.305  52.166  1.00  0.00    +0.156 HD
ENDBRANCH  16  18
BRANCH  17  21
ATOM     21  C   UNL     1      21.493  -0.240  52.596  1.00  0.00    -0.024 A 
ATOM     22  C   UNL     1      20.479  -0.625  53.480  1.00  0.00    +0.008 A 
ATOM     23  C   UNL     1      21.151   0.254  51.332  1.00  0.00    +0.008 A 
ATOM     24  C   UNL     1      19.139  -0.501  53.110  1.00  0.00    +0.001 A 
ATOM     25  C   UNL     1      19.810   0.378  50.963  1.00  0.00    +0.001 A 
ATOM     26  C   UNL     1      18.805   0.002  51.853  1.00  0.00    +0.000 A 
ENDBRANCH  17  21
ENDBRANCH   2  16
TORSDOF 5
ENDMDL
MODEL 2
REMARK VINA RESULT:    -7.147      3.227      7.445
REMARK INTER + INTRA:          -8.998
REMARK INTER:                  -8.813
REMARK INTRA:                  -0.185
REMARK UNBOUND:                -0.180
REMARK SMILES N#CC(C#N)=C(C#N)C(N)=C(C#N)C(N)=Cc1ccccc1
REMARK SMILES IDX 9 1 11 2 12 3 13 4 6 5 1 6 2 7 3 8 4 9 5 10 7 11 8 12 10 13
REMARK SMILES IDX 14 16 16 17 15 18 17 21 18 22 22 23 19 24 21 25 20 26
REMARK H PARENT 10 14 10 15 15 19 15 20
ROOT
ATOM      1  C   UNL     1      23.479   3.152  52.370  1.00  0.00    +0.072 C 
ATOM      2  C   UNL     1      23.613   1.855  51.958  1.00  0.00    +0.099 C 
ATOM      3  C   UNL     1      22.760   1.351  50.918  1.00  0.00    +0.104 C 
ATOM      4  N   UNL     1      22.027   0.993  50.094  1.00  0.00    -0.192 NA
ENDROOT
BRANCH   1   5
ATOM      5  C   UNL     1      22.473   4.052  51.769  1.00  0.00    +0.105 C 
ATOM      6  N   UNL     1      25.242   5.428  50.218  1.00  0.00    -0.192 NA
ATOM      7  C   UNL     1      24.133   5.283  50.523  1.00  0.00    +0.112 C 
ATOM      8  C   UNL     1      22.784   5.053  50.915  1.00  0.00    +0.149 C 
ATOM      9  C   UNL     1      21.786   5.899  50.353  1.00  0.00    +0.112 C 
ATOM     10  N   UNL     1      20.976   6.581  49.882  1.00  0.00    -0.192 NA
ATOM     11  C   UNL     1      21.115   3.798  52.152  1.00  0.00    +0.104 C 
ATOM     12  N   UNL     1      20.017   3.599  52.464  1.00  0.00    -0.192 NA
ENDBRANCH   1   5
BRANCH   1  13
ATOM     13  N   UNL     1      24.258   3.738  53.365  1.00  0.00    -0.396 N 
ATOM     14  H   UNL     1      24.332   3.204  54.228  1.00  0.00    +0.156 HD
ATOM     15  H   UNL     1      25.199   3.974  53.015  1.00  0.00    +0.156 HD
ENDBRANCH   1  13
BRANCH   2  16
ATOM     16  C   UNL     1      24.616   0.920  52.532  1.00  0.00    +0.052 C 
ATOM     17  C   UNL     1      25.863   0.851  52.014  1.00  0.00    +0.035 C 
BRANCH  16  18
ATOM     18  N   UNL     1      24.215   0.136  53.615  1.00  0.00    -0.398 N 
ATOM     19  H   UNL     1      23.245   0.316  53.881  1.00  0.00    +0.156 HD
ATOM     20  H   UNL     1      24.349  -0.861  53.439  1.00  0.00    +0.156 HD
ENDBRANCH  16  18
BRANCH  17  21
ATOM     21  C   UNL     1      26.934  -0.036  52.488  1.00  0.00    -0.024 A 
ATOM     22  C   UNL     1      28.069   0.518  53.091  1.00  0.00    +0.008 A 
ATOM     23  C   UNL     1      26.853  -1.423  52.324  1.00  0.00    +0.008 A 
ATOM     24  C   UNL     1      29.101  -0.308  53.540  1.00  0.00    +0.001 A 
ATOM     25  C   UNL     1      27.886  -2.249  52.773  1.00  0.00    +0.001 A 
ATOM     26  C   UNL     1      29.008  -1.690  53.383  1.00  0.00    +0.000 A 
ENDBRANCH  17  21
ENDBRANCH   2  16
TORSDOF 5
ENDMDL
MODEL 3
REMARK VINA RESULT:    -7.110      4.466      7.251
REMARK INTER + INTRA:          -8.953
REMARK INTER:                  -9.225
REMARK INTRA:                   0.272
REMARK UNBOUND:                -0.180
REMARK SMILES N#CC(C#N)=C(C#N)C(N)=C(C#N)C(N)=Cc1ccccc1
REMARK SMILES IDX 9 1 11 2 12 3 13 4 6 5 1 6 2 7 3 8 4 9 5 10 7 11 8 12 10 13
REMARK SMILES IDX 14 16 16 17 15 18 17 21 18 22 22 23 19 24 21 25 20 26
REMARK H PARENT 10 14 10 15 15 19 15 20
ROOT
ATOM      1  C   UNL     1      23.792   2.606  52.353  1.00  0.00    +0.072 C 
ATOM      2  C   UNL     1      23.830   3.005  51.046  1.00  0.00    +0.099 C 
ATOM      3  C   UNL     1      23.025   2.321  50.073  1.00  0.00    +0.104 C 
ATOM      4  N   UNL     1      22.372   1.715  49.330  1.00  0.00    -0.192 NA
ENDROOT
BRANCH   1   5
ATOM      5  C   UNL     1      22.939   1.483  52.793  1.00  0.00    +0.105 C 
ATOM      6  N   UNL     1      25.965  -0.178  53.020  1.00  0.00    -0.192 NA
ATOM      7  C   UNL     1      24.819  -0.006  53.062  1.00  0.00    +0.112 C 
ATOM      8  C   UNL     1      23.422   0.261  53.113  1.00  0.00    +0.149 C 
ATOM      9  C   UNL     1      22.569  -0.797  53.537  1.00  0.00    +0.112 C 
ATOM     10  N   UNL     1      21.880  -1.658  53.897  1.00  0.00    -0.192 NA
ATOM     11  C   UNL     1      21.536   1.768  52.864  1.00  0.00    +0.104 C 
ATOM     12  N   UNL     1      20.400   1.993  52.917  1.00  0.00    -0.192 NA
ENDBRANCH   1   5
BRANCH   1  13
ATOM     13  N   UNL     1      24.529   3.205  53.373  1.00  0.00    -0.396 N 
ATOM     14  H   UNL     1      25.274   2.630  53.763  1.00  0.00    +0.156 HD
ATOM     15  H   UNL     1      24.906   4.117  53.078  1.00  0.00    +0.156 HD
ENDBRANCH   1  13
BRANCH   2  16
ATOM     16  C   UNL     1      24.670   4.133  50.565  1.00  0.00    +0.052 C 
ATOM     17  C   UNL     1      25.464   3.981  49.481  1.00  0.00    +0.035 C 
BRANCH  16  18
ATOM     18  N   UNL     1      24.597   5.334  51.272  1.00  0.00    -0.398 N 
ATOM     19  H   UNL     1      25.521   5.688  51.527  1.00  0.00    +0.156 HD
ATOM     20  H   UNL     1      24.077   6.051  50.762  1.00  0.00    +0.156 HD
ENDBRANCH  16  18
BRANCH  17  21
ATOM     21  C   UNL     1      26.342   5.016  48.917  1.00  0.00    -0.024 A 
ATOM     22  C   UNL     1      27.708   4.751  48.766  1.00  0.00    +0.008 A 
ATOM     23  C   UNL     1      25.843   6.272  48.554  1.00  0.00    +0.008 A 
ATOM     24  C   UNL     1      28.560   5.724  48.241  1.00  0.00    +0.001 A 
ATOM     25  C   UNL     1      26.695   7.245  48.029  1.00  0.00    +0.001 A 
ATOM     26  C   UNL     1      28.053   6.970  47.871  1.00  0.00    +0.000 A 
ENDBRANCH  17  21
ENDBRANCH   2  16
TORSDOF 5
ENDMDL
MODEL 4
REMARK VINA RESULT:    -7.008      1.662      2.829
REMARK INTER + INTRA:          -8.827
REMARK INTER:                  -8.467
REMARK INTRA:                  -0.359
REMARK UNBOUND:                -0.180
REMARK SMILES N#CC(C#N)=C(C#N)C(N)=C(C#N)C(N)=Cc1ccccc1
REMARK SMILES IDX 9 1 11 2 12 3 13 4 6 5 1 6 2 7 3 8 4 9 5 10 7 11 8 12 10 13
REMARK SMILES IDX 14 16 16 17 15 18 17 21 18 22 22 23 19 24 21 25 20 26
REMARK H PARENT 10 14 10 15 15 19 15 20
ROOT
ATOM      1  C   UNL     1      26.275   0.681  52.397  1.00  0.00    +0.072 C 
ATOM      2  C   UNL     1      25.095   0.732  53.084  1.00  0.00    +0.099 C 
ATOM      3  C   UNL     1      24.874  -0.171  54.179  1.00  0.00    +0.104 C 
ATOM      4  N   UNL     1      24.744  -0.941  55.037  1.00  0.00    -0.192 NA
ENDROOT
BRANCH   1   5
ATOM      5  C   UNL     1      27.336  -0.283  52.753  1.00  0.00    +0.105 C 
ATOM      6  N   UNL     1      28.804   2.500  54.190  1.00  0.00    -0.192 NA
ATOM      7  C   UNL     1      28.674   1.400  53.849  1.00  0.00    +0.112 C 
ATOM      8  C   UNL     1      28.460   0.058  53.423  1.00  0.00    +0.149 C 
ATOM      9  C   UNL     1      29.459  -0.901  53.753  1.00  0.00    +0.112 C 
ATOM     10  N   UNL     1      30.269  -1.680  54.036  1.00  0.00    -0.192 NA
ATOM     11  C   UNL     1      27.100  -1.636  52.341  1.00  0.00    +0.104 C 
ATOM     12  N   UNL     1      26.915  -2.729  52.004  1.00  0.00    -0.192 NA
ENDBRANCH   1   5
BRANCH   1  13
ATOM     13  N   UNL     1      26.589   1.515  51.324  1.00  0.00    -0.396 N 
ATOM     14  H   UNL     1      27.534   1.891  51.332  1.00  0.00    +0.156 HD
ATOM     15  H   UNL     1      26.401   1.053  50.423  1.00  0.00    +0.156 HD
ENDBRANCH   1  13
BRANCH   2  16
ATOM     16  C   UNL     1      24.006   1.691  52.760  1.00  0.00    +0.052 C 
ATOM     17  C   UNL     1      22.928   1.287  52.050  1.00  0.00    +0.035 C 
BRANCH  16  18
ATOM     18  N   UNL     1      24.147   3.000  53.220  1.00  0.00    -0.398 N 
ATOM     19  H   UNL     1      25.124   3.298  53.237  1.00  0.00    +0.156 HD
ATOM     20  H   UNL     1      23.590   3.662  52.676  1.00  0.00    +0.156 HD
ENDBRANCH  16  18
BRANCH  17  21
ATOM     21  C   UNL     1      21.796   2.140  51.663  1.00  0.00    -0.024 A 
ATOM     22  C   UNL     1      20.677   2.221  52.500  1.00  0.00    +0.008 A 
ATOM     23  C   UNL     1      21.804   2.853  50.458  1.00  0.00    +0.008 A 
ATOM     24  C   UNL     1      19.588   3.019  52.145  1.00  0.00    +0.001 A 
ATOM     25  C   UNL     1      20.714   3.651  50.104  1.00  0.00    +0.001 A 
ATOM     26  C   UNL     1      19.608   3.735  50.948  1.00  0.00    +0.000 A 
ENDBRANCH  17  21
ENDBRANCH   2  16
TORSDOF 5
ENDMDL
MODEL 5
REMARK VINA RESULT:    -6.827      4.498      7.686
REMARK INTER + INTRA:          -8.604
REMARK INTER:                  -8.892
REMARK INTRA:                   0.288
REMARK UNBOUND:                -0.180
REMARK SMILES N#CC(C#N)=C(C#N)C(N)=C(C#N)C(N)=Cc1ccccc1
REMARK SMILES IDX 9 1 11 2 12 3 13 4 6 5 1 6 2 7 3 8 4 9 5 10 7 11 8 12 10 13
REMARK SMILES IDX 14 16 16 17 15 18 17 21 18 22 22 23 19 24 21 25 20 26
REMARK H PARENT 10 14 10 15 15 19 15 20
ROOT
ATOM      1  C   UNL     1      23.667   2.521  52.385  1.00  0.00    +0.072 C 
ATOM      2  C   UNL     1      23.719   2.905  51.074  1.00  0.00    +0.099 C 
ATOM      3  C   UNL     1      22.937   2.199  50.098  1.00  0.00    +0.104 C 
ATOM      4  N   UNL     1      22.303   1.576  49.353  1.00  0.00    -0.192 NA
ENDROOT
BRANCH   1   5
ATOM      5  C   UNL     1      22.822   1.392  52.826  1.00  0.00    +0.105 C 
ATOM      6  N   UNL     1      20.271   3.699  52.445  1.00  0.00    -0.192 NA
ATOM      7  C   UNL     1      20.794   2.696  52.698  1.00  0.00    +0.112 C 
ATOM      8  C   UNL     1      21.481   1.481  52.981  1.00  0.00    +0.149 C 
ATOM      9  C   UNL     1      20.698   0.370  53.404  1.00  0.00    +0.112 C 
ATOM     10  N   UNL     1      20.055  -0.536  53.735  1.00  0.00    -0.192 NA
ATOM     11  C   UNL     1      23.519   0.167  53.085  1.00  0.00    +0.104 C 
ATOM     12  N   UNL     1      24.081  -0.823  53.302  1.00  0.00    -0.192 NA
ENDBRANCH   1   5
BRANCH   1  13
ATOM     13  N   UNL     1      24.382   3.142  53.408  1.00  0.00    -0.396 N 
ATOM     14  H   UNL     1      25.387   2.987  53.389  1.00  0.00    +0.156 HD
ATOM     15  H   UNL     1      24.181   4.151  53.447  1.00  0.00    +0.156 HD
ENDBRANCH   1  13
BRANCH   2  16
ATOM     16  C   UNL     1      24.552   4.038  50.592  1.00  0.00    +0.052 C 
ATOM     17  C   UNL     1      25.344   3.890  49.505  1.00  0.00    +0.035 C 
BRANCH  16  18
ATOM     18  N   UNL     1      24.474   5.238  51.299  1.00  0.00    -0.398 N 
ATOM     19  H   UNL     1      24.210   5.092  52.275  1.00  0.00    +0.156 HD
ATOM     20  H   UNL     1      25.343   5.772  51.249  1.00  0.00    +0.156 HD
ENDBRANCH  16  18
BRANCH  17  21
ATOM     21  C   UNL     1      26.215   4.930  48.940  1.00  0.00    -0.024 A 
ATOM     22  C   UNL     1      27.583   4.675  48.793  1.00  0.00    +0.008 A 
ATOM     23  C   UNL     1      25.706   6.180  48.571  1.00  0.00    +0.008 A 
ATOM     24  C   UNL     1      28.429   5.654  48.266  1.00  0.00    +0.001 A 
ATOM     25  C   UNL     1      26.552   7.158  48.044  1.00  0.00    +0.001 A 
ATOM     26  C   UNL     1      27.912   6.894  47.890  1.00  0.00    +0.000 A 
ENDBRANCH  17  21
ENDBRANCH   2  16
TORSDOF 5
ENDMDL
MODEL 6
REMARK VINA RESULT:    -6.621      5.217      8.954
REMARK INTER + INTRA:          -8.349
REMARK INTER:                  -8.283
REMARK INTRA:                  -0.066
REMARK UNBOUND:                -0.180
REMARK SMILES N#CC(C#N)=C(C#N)C(N)=C(C#N)C(N)=Cc1ccccc1
REMARK SMILES IDX 9 1 11 2 12 3 13 4 6 5 1 6 2 7 3 8 4 9 5 10 7 11 8 12 10 13
REMARK SMILES IDX 14 16 16 17 15 18 17 21 18 22 22 23 19 24 21 25 20 26
REMARK H PARENT 10 14 10 15 15 19 15 20
ROOT
ATOM      1  C   UNL     1      23.614   3.836  51.487  1.00  0.00    +0.072 C 
ATOM      2  C   UNL     1      24.223   3.731  50.268  1.00  0.00    +0.099 C 
ATOM      3  C   UNL     1      23.523   3.110  49.178  1.00  0.00    +0.104 C 
ATOM      4  N   UNL     1      22.918   2.577  48.344  1.00  0.00    -0.192 NA
ENDROOT
BRANCH   1   5
ATOM      5  C   UNL     1      22.246   3.324  51.714  1.00  0.00    +0.105 C 
ATOM      6  N   UNL     1      21.343   6.533  50.787  1.00  0.00    -0.192 NA
ATOM      7  C   UNL     1      21.226   5.436  51.143  1.00  0.00    +0.112 C 
ATOM      8  C   UNL     1      21.134   4.078  51.562  1.00  0.00    +0.149 C 
ATOM      9  C   UNL     1      19.831   3.549  51.785  1.00  0.00    +0.112 C 
ATOM     10  N   UNL     1      18.767   3.119  51.953  1.00  0.00    -0.192 NA
ATOM     11  C   UNL     1      22.162   1.950  52.112  1.00  0.00    +0.104 C 
ATOM     12  N   UNL     1      22.091   0.841  52.441  1.00  0.00    -0.192 NA
ENDBRANCH   1   5
BRANCH   1  13
ATOM     13  N   UNL     1      24.203   4.423  52.605  1.00  0.00    -0.396 N 
ATOM     14  H   UNL     1      24.202   3.851  53.446  1.00  0.00    +0.156 HD
ATOM     15  H   UNL     1      25.160   4.745  52.400  1.00  0.00    +0.156 HD
ENDBRANCH   1  13
BRANCH   2  16
ATOM     16  C   UNL     1      25.594   4.237  49.998  1.00  0.00    +0.052 C 
ATOM     17  C   UNL     1      25.793   5.229  49.101  1.00  0.00    +0.035 C 
BRANCH  16  18
ATOM     18  N   UNL     1      26.644   3.652  50.707  1.00  0.00    -0.398 N 
ATOM     19  H   UNL     1      26.971   4.247  51.471  1.00  0.00    +0.156 HD
ATOM     20  H   UNL     1      26.399   2.727  51.066  1.00  0.00    +0.156 HD
ENDBRANCH  16  18
BRANCH  17  21
ATOM     21  C   UNL     1      27.097   5.806  48.745  1.00  0.00    -0.024 A 
ATOM     22  C   UNL     1      27.254   7.196  48.735  1.00  0.00    +0.008 A 
ATOM     23  C   UNL     1      28.177   4.990  48.389  1.00  0.00    +0.008 A 
ATOM     24  C   UNL     1      28.483   7.763  48.391  1.00  0.00    +0.001 A 
ATOM     25  C   UNL     1      29.406   5.558  48.044  1.00  0.00    +0.001 A 
ATOM     26  C   UNL     1      29.558   6.944  48.047  1.00  0.00    +0.000 A 
ENDBRANCH  17  21
ENDBRANCH   2  16
TORSDOF 5
ENDMDL
MODEL 7
REMARK VINA RESULT:    -6.491      3.892      7.524
REMARK INTER + INTRA:          -8.190
REMARK INTER:                  -8.195
REMARK INTRA:                   0.005
REMARK UNBOUND:                -0.180
REMARK SMILES N#CC(C#N)=C(C#N)C(N)=C(C#N)C(N)=Cc1ccccc1
REMARK SMILES IDX 9 1 11 2 12 3 13 4 6 5 1 6 2 7 3 8 4 9 5 10 7 11 8 12 10 13
REMARK SMILES IDX 14 16 16 17 15 18 17 21 18 22 22 23 19 24 21 25 20 26
REMARK H PARENT 10 14 10 15 15 19 15 20
ROOT
ATOM      1  C   UNL     1      21.469   2.099  52.301  1.00  0.00    +0.072 C 
ATOM      2  C   UNL     1      22.809   1.860  52.176  1.00  0.00    +0.099 C 
ATOM      3  C   UNL     1      23.335   0.570  52.527  1.00  0.00    +0.104 C 
ATOM      4  N   UNL     1      23.703  -0.481  52.850  1.00  0.00    -0.192 NA
ENDROOT
BRANCH   1   5
ATOM      5  C   UNL     1      20.542   1.058  52.791  1.00  0.00    +0.105 C 
ATOM      6  N   UNL     1      19.255   1.287  49.588  1.00  0.00    -0.192 NA
ATOM      7  C   UNL     1      19.367   0.935  50.687  1.00  0.00    +0.112 C 
ATOM      8  C   UNL     1      19.554   0.524  52.037  1.00  0.00    +0.149 C 
ATOM      9  C   UNL     1      18.682  -0.481  52.543  1.00  0.00    +0.112 C 
ATOM     10  N   UNL     1      17.978  -1.309  52.945  1.00  0.00    -0.192 NA
ATOM     11  C   UNL     1      20.755   0.633  54.144  1.00  0.00    +0.104 C 
ATOM     12  N   UNL     1      20.919   0.293  55.239  1.00  0.00    -0.192 NA
ENDBRANCH   1   5
BRANCH   1  13
ATOM     13  N   UNL     1      20.860   3.311  51.983  1.00  0.00    -0.396 N 
ATOM     14  H   UNL     1      20.564   3.869  52.781  1.00  0.00    +0.156 HD
ATOM     15  H   UNL     1      21.453   3.877  51.358  1.00  0.00    +0.156 HD
ENDBRANCH   1  13
BRANCH   2  16
ATOM     16  C   UNL     1      23.774   2.878  51.682  1.00  0.00    +0.052 C 
ATOM     17  C   UNL     1      24.084   2.945  50.368  1.00  0.00    +0.035 C 
BRANCH  16  18
ATOM     18  N   UNL     1      24.326   3.747  52.623  1.00  0.00    -0.398 N 
ATOM     19  H   UNL     1      24.887   3.253  53.320  1.00  0.00    +0.156 HD
ATOM     20  H   UNL     1      24.883   4.485  52.187  1.00  0.00    +0.156 HD
ENDBRANCH  16  18
BRANCH  17  21
ATOM     21  C   UNL     1      25.025   3.898  49.763  1.00  0.00    -0.024 A 
ATOM     22  C   UNL     1      26.364   3.529  49.593  1.00  0.00    +0.008 A 
ATOM     23  C   UNL     1      24.612   5.179  49.380  1.00  0.00    +0.008 A 
ATOM     24  C   UNL     1      27.275   4.425  49.028  1.00  0.00    +0.001 A 
ATOM     25  C   UNL     1      25.524   6.075  48.816  1.00  0.00    +0.001 A 
ATOM     26  C   UNL     1      26.854   5.696  48.639  1.00  0.00    +0.000 A 
ENDBRANCH  17  21
ENDBRANCH   2  16
TORSDOF 5
ENDMDL
MODEL 8
REMARK VINA RESULT:    -6.445      4.208      7.876
REMARK INTER + INTRA:          -8.133
REMARK INTER:                  -7.583
REMARK INTRA:                  -0.550
REMARK UNBOUND:                -0.180
REMARK SMILES N#CC(C#N)=C(C#N)C(N)=C(C#N)C(N)=Cc1ccccc1
REMARK SMILES IDX 9 1 11 2 12 3 13 4 6 5 1 6 2 7 3 8 4 9 5 10 7 11 8 12 10 13
REMARK SMILES IDX 14 16 16 17 15 18 17 21 18 22 22 23 19 24 21 25 20 26
REMARK H PARENT 10 14 10 15 15 19 15 20
ROOT
ATOM      1  C   UNL     1      22.670   4.533  50.413  1.00  0.00    +0.072 C 
ATOM      2  C   UNL     1      22.451   3.716  51.486  1.00  0.00    +0.099 C 
ATOM      3  C   UNL     1      21.123   3.584  52.017  1.00  0.00    +0.104 C 
ATOM      4  N   UNL     1      20.034   3.538  52.416  1.00  0.00    -0.192 NA
ENDROOT
BRANCH   1   5
ATOM      5  C   UNL     1      21.568   5.288  49.780  1.00  0.00    +0.105 C 
ATOM      6  N   UNL     1      21.152   2.360  47.984  1.00  0.00    -0.192 NA
ATOM      7  C   UNL     1      20.974   3.453  48.330  1.00  0.00    +0.112 C 
ATOM      8  C   UNL     1      20.785   4.783  48.800  1.00  0.00    +0.149 C 
ATOM      9  C   UNL     1      19.730   5.540  48.216  1.00  0.00    +0.112 C 
ATOM     10  N   UNL     1      18.860   6.147  47.748  1.00  0.00    -0.192 NA
ATOM     11  C   UNL     1      21.371   6.618  50.277  1.00  0.00    +0.104 C 
ATOM     12  N   UNL     1      21.212   7.696  50.671  1.00  0.00    -0.192 NA
ENDBRANCH   1   5
BRANCH   1  13
ATOM     13  N   UNL     1      23.917   4.726  49.821  1.00  0.00    -0.396 N 
ATOM     14  H   UNL     1      24.568   3.950  49.921  1.00  0.00    +0.156 HD
ATOM     15  H   UNL     1      23.825   4.984  48.828  1.00  0.00    +0.156 HD
ENDBRANCH   1  13
BRANCH   2  16
ATOM     16  C   UNL     1      23.530   2.936  52.147  1.00  0.00    +0.052 C 
ATOM     17  C   UNL     1      23.757   1.650  51.797  1.00  0.00    +0.035 C 
BRANCH  16  18
ATOM     18  N   UNL     1      24.285   3.587  53.124  1.00  0.00    -0.398 N 
ATOM     19  H   UNL     1      24.035   4.574  53.209  1.00  0.00    +0.156 HD
ATOM     20  H   UNL     1      24.213   3.129  54.035  1.00  0.00    +0.156 HD
ENDBRANCH  16  18
BRANCH  17  21
ATOM     21  C   UNL     1      24.786   0.778  52.381  1.00  0.00    -0.024 A 
ATOM     22  C   UNL     1      26.062   0.740  51.808  1.00  0.00    +0.008 A 
ATOM     23  C   UNL     1      24.504  -0.037  53.484  1.00  0.00    +0.008 A 
ATOM     24  C   UNL     1      27.049  -0.090  52.343  1.00  0.00    +0.001 A 
ATOM     25  C   UNL     1      25.492  -0.866  54.019  1.00  0.00    +0.001 A 
ATOM     26  C   UNL     1      26.765  -0.890  53.449  1.00  0.00    +0.000 A 
ENDBRANCH  17  21
ENDBRANCH   2  16
TORSDOF 5
ENDMDL
MODEL 9
REMARK VINA RESULT:    -6.373      4.205      8.279
REMARK INTER + INTRA:          -8.044
REMARK INTER:                  -7.523
REMARK INTRA:                  -0.521
REMARK UNBOUND:                -0.180
REMARK SMILES N#CC(C#N)=C(C#N)C(N)=C(C#N)C(N)=Cc1ccccc1
REMARK SMILES IDX 9 1 11 2 12 3 13 4 6 5 1 6 2 7 3 8 4 9 5 10 7 11 8 12 10 13
REMARK SMILES IDX 14 16 16 17 15 18 17 21 18 22 22 23 19 24 21 25 20 26
REMARK H PARENT 10 14 10 15 15 19 15 20
ROOT
ATOM      1  C   UNL     1      22.344   3.919  49.988  1.00  0.00    +0.072 C 
ATOM      2  C   UNL     1      22.270   3.384  51.244  1.00  0.00    +0.099 C 
ATOM      3  C   UNL     1      21.011   3.369  51.934  1.00  0.00    +0.104 C 
ATOM      4  N   UNL     1      19.973   3.408  52.451  1.00  0.00    -0.192 NA
ENDROOT
BRANCH   1   5
ATOM      5  C   UNL     1      21.155   4.486  49.319  1.00  0.00    +0.105 C 
ATOM      6  N   UNL     1      22.216   7.410  50.834  1.00  0.00    -0.192 NA
ATOM      7  C   UNL     1      21.554   6.695  50.205  1.00  0.00    +0.112 C 
ATOM      8  C   UNL     1      20.784   5.782  49.431  1.00  0.00    +0.149 C 
ATOM      9  C   UNL     1      19.633   6.294  48.768  1.00  0.00    +0.112 C 
ATOM     10  N   UNL     1      18.704   6.718  48.218  1.00  0.00    -0.192 NA
ATOM     11  C   UNL     1      20.400   3.564  48.523  1.00  0.00    +0.104 C 
ATOM     12  N   UNL     1      19.783   2.819  47.884  1.00  0.00    -0.192 NA
ENDBRANCH   1   5
BRANCH   1  13
ATOM     13  N   UNL     1      23.514   3.977  49.233  1.00  0.00    -0.396 N 
ATOM     14  H   UNL     1      24.201   3.256  49.443  1.00  0.00    +0.156 HD
ATOM     15  H   UNL     1      23.309   3.986  48.224  1.00  0.00    +0.156 HD
ENDBRANCH   1  13
BRANCH   2  16
ATOM     16  C   UNL     1      23.442   2.799  51.948  1.00  0.00    +0.052 C 
ATOM     17  C   UNL     1      23.730   1.484  51.820  1.00  0.00    +0.035 C 
BRANCH  16  18
ATOM     18  N   UNL     1      24.215   3.659  52.729  1.00  0.00    -0.398 N 
ATOM     19  H   UNL     1      23.906   4.630  52.652  1.00  0.00    +0.156 HD
ATOM     20  H   UNL     1      24.236   3.376  53.710  1.00  0.00    +0.156 HD
ENDBRANCH  16  18
BRANCH  17  21
ATOM     21  C   UNL     1      24.852   0.792  52.471  1.00  0.00    -0.024 A 
ATOM     22  C   UNL     1      26.125   0.850  51.891  1.00  0.00    +0.008 A 
ATOM     23  C   UNL     1      24.666   0.054  53.645  1.00  0.00    +0.008 A 
ATOM     24  C   UNL     1      27.201   0.191  52.489  1.00  0.00    +0.001 A 
ATOM     25  C   UNL     1      25.743  -0.605  54.242  1.00  0.00    +0.001 A 
ATOM     26  C   UNL     1      27.009  -0.534  53.665  1.00  0.00    +0.000 A 
ENDBRANCH  17  21
ENDBRANCH   2  16
TORSDOF 5
ENDMDL
