REMARK SMILES Cc1cc(-c2ccc(O)c([N+](=O)[O-])c2)[nH]c1-c1ccccc1
REMARK SMILES IDX 5 1 6 2 7 3 8 4 10 5 14 6 4 7 2 8 3 9 16 10 15 11 1 12 17 14
REMARK SMILES IDX 18 15 22 16 19 17 21 18 20 19 11 20 12 21 13 22 9 23
REMARK H PARENT 15 13 9 24
ROOT
ATOM      1  C   UNL     1       2.063  -0.104  -0.203  1.00  0.00    +0.005 A 
ATOM      2  C   UNL     1       2.275   0.538  -1.435  1.00  0.00    +0.014 A 
ATOM      3  C   UNL     1       3.565   0.885  -1.860  1.00  0.00    +0.054 A 
ATOM      4  C   UNL     1       4.662   0.596  -1.053  1.00  0.00    +0.194 A 
ATOM      5  C   UNL     1       4.451  -0.036   0.171  1.00  0.00    +0.311 A 
ATOM      6  C   UNL     1       3.169  -0.397   0.603  1.00  0.00    +0.100 A 
ENDROOT
BRANCH   1   7
ATOM      7  C   UNL     1       0.717  -0.472   0.235  1.00  0.00    +0.046 A 
ATOM      8  C   UNL     1      -1.137  -1.458   1.130  1.00  0.00    -0.025 A 
ATOM      9  C   UNL     1       0.273  -1.566   0.955  1.00  0.00    +0.032 A 
ATOM     10  C   UNL     1      -1.529  -0.278   0.513  1.00  0.00    +0.049 A 
ATOM     11  N   UNL     1      -0.395   0.300  -0.010  1.00  0.00    -0.354 N 
ATOM     12  C   UNL     1      -1.999  -2.430   1.854  1.00  0.00    +0.047 C 
ATOM     13  H   UNL     1      -0.390   1.178  -0.509  1.00  0.00    +0.167 HD
BRANCH  10  14
ATOM     14  C   UNL     1      -2.844   0.341   0.365  1.00  0.00    -0.002 A 
ATOM     15  C   UNL     1      -3.910  -0.380  -0.184  1.00  0.00    +0.010 A 
ATOM     16  C   UNL     1      -3.055   1.668   0.763  1.00  0.00    +0.010 A 
ATOM     17  C   UNL     1      -5.165   0.214  -0.336  1.00  0.00    +0.001 A 
ATOM     18  C   UNL     1      -4.310   2.261   0.613  1.00  0.00    +0.001 A 
ATOM     19  C   UNL     1      -5.364   1.534   0.063  1.00  0.00    +0.000 A 
ENDBRANCH  10  14
ENDBRANCH   1   7
BRANCH   5  20
ATOM     20  N   UNL     1       5.569  -0.336   1.040  1.00  0.00    +0.066 N 
ATOM     21  O   UNL     1       5.780  -1.532   1.288  1.00  0.00    -0.258 OA
ATOM     22  O   UNL     1       6.195   0.621   1.517  1.00  0.00    -0.258 OA
ENDBRANCH   5  20
BRANCH   4  23
ATOM     23  O   UNL     1       5.920   0.906  -1.476  1.00  0.00    -0.502 OA
ATOM     24  H   UNL     1       5.880   1.381  -2.323  1.00  0.00    +0.293 HD
ENDBRANCH   4  23
TORSDOF 4
