REMARK SMILES N#CC(=Cc1ccccc1)C(N)=C(C#N)C(N)=C(C#N)C#N
REMARK SMILES IDX 16 1 18 2 19 3 20 4 21 5 22 6 13 7 11 8 14 9 15 10 3 11 1 12
REMARK SMILES IDX 2 13 4 14 5 15 6 16 10 17 7 18 9 19 8 20 12 21 17 24
REMARK H PARENT 12 22 12 23 17 25 17 26
ROOT
ATOM      1  C   UNL     1       3.431  -0.068  -0.591  1.00  0.00    +0.081 C 
ATOM      2  C   UNL     1       4.319   0.520   0.255  1.00  0.00    +0.153 C 
ATOM      3  C   UNL     1       5.702   0.189   0.195  1.00  0.00    +0.113 C 
ATOM      4  N   UNL     1       6.816  -0.130   0.129  1.00  0.00    -0.192 NA
ATOM      5  C   UNL     1       3.924   1.483   1.229  1.00  0.00    +0.113 C 
ATOM      6  N   UNL     1       3.597   2.273   2.012  1.00  0.00    -0.192 NA
ENDROOT
BRANCH   1   7
ATOM      7  C   UNL     1       1.992   0.258  -0.513  1.00  0.00    +0.101 C 
ATOM      8  C   UNL     1       1.160  -0.346   0.379  1.00  0.00    +0.070 C 
ATOM      9  C   UNL     1       1.528   1.264  -1.424  1.00  0.00    +0.104 C 
ATOM     10  N   UNL     1       1.138   2.068  -2.163  1.00  0.00    -0.192 NA
BRANCH   8  11
ATOM     11  C   UNL     1      -0.266   0.015   0.443  1.00  0.00    +0.077 C 
ATOM     12  N   UNL     1      -0.988   1.668   2.306  1.00  0.00    -0.192 NA
ATOM     13  C   UNL     1      -0.666   0.930   1.470  1.00  0.00    +0.101 C 
ATOM     14  C   UNL     1      -1.139  -0.522  -0.433  1.00  0.00    +0.029 C 
BRANCH  14  15
ATOM     15  C   UNL     1      -2.575  -0.228  -0.486  1.00  0.00    -0.024 A 
ATOM     16  C   UNL     1      -3.036   1.032  -0.885  1.00  0.00    +0.008 A 
ATOM     17  C   UNL     1      -3.498  -1.227  -0.157  1.00  0.00    +0.008 A 
ATOM     18  C   UNL     1      -4.406   1.293  -0.940  1.00  0.00    +0.001 A 
ATOM     19  C   UNL     1      -4.868  -0.963  -0.213  1.00  0.00    +0.001 A 
ATOM     20  C   UNL     1      -5.321   0.297  -0.603  1.00  0.00    +0.000 A 
ENDBRANCH  14  15
ENDBRANCH   8  11
BRANCH   8  21
ATOM     21  N   UNL     1       1.563  -1.341   1.263  1.00  0.00    -0.397 N 
ATOM     22  H   UNL     1       0.804  -1.912   1.636  1.00  0.00    +0.156 HD
ATOM     23  H   UNL     1       2.355  -1.904   0.961  1.00  0.00    +0.156 HD
ENDBRANCH   8  21
ENDBRANCH   1   7
BRANCH   1  24
ATOM     24  N   UNL     1       3.765  -0.999  -1.569  1.00  0.00    -0.396 N 
ATOM     25  H   UNL     1       3.025  -1.618  -1.893  1.00  0.00    +0.156 HD
ATOM     26  H   UNL     1       4.682  -1.443  -1.518  1.00  0.00    +0.156 HD
ENDBRANCH   1  24
TORSDOF 5
