MODEL 1
REMARK VINA RESULT:    -8.273      0.000      0.000
REMARK INTER + INTRA:         -13.739
REMARK INTER:                 -12.143
REMARK INTRA:                  -1.597
REMARK UNBOUND:                -1.597
REMARK SMILES CCN(CC/N=N/Nc1ccc2ncnc(-c3cccc(Cl)c3)c2c1)c1ccccn1
REMARK SMILES IDX 6 1 7 2 5 3 4 4 3 5 2 6 1 7 26 8 27 9 31 10 28 11 30 12
REMARK SMILES IDX 29 13 8 14 9 16 10 17 25 18 11 19 24 20 12 21 16 22 13 23
REMARK SMILES IDX 15 24 14 25 17 26 18 27 23 28 19 29 21 30 20 31 22 32
REMARK H PARENT 8 15
ROOT
ATOM      1  N   UNL     1      22.401  -1.669  55.315  1.00  0.00    -0.169 NA
ATOM      2  N   UNL     1      21.687  -0.936  54.608  1.00  0.00    -0.075 NA
ENDROOT
BRANCH   1   3
ATOM      3  C   UNL     1      23.778  -1.154  55.430  1.00  0.00    +0.190 C 
BRANCH   3   4
ATOM      4  C   UNL     1      24.370  -0.957  54.028  1.00  0.00    +0.143 C 
BRANCH   4   5
ATOM      5  N   UNL     1      25.209   0.253  53.902  1.00  0.00    -0.355 N 
BRANCH   5   6
ATOM      6  C   UNL     1      24.806   1.187  52.836  1.00  0.00    +0.114 C 
ATOM      7  C   UNL     1      24.874   2.630  53.316  1.00  0.00    +0.027 C 
ENDBRANCH   5   6
BRANCH   5   8
ATOM      8  C   UNL     1      26.589  -0.011  53.967  1.00  0.00    +0.128 A 
ATOM      9  C   UNL     1      27.154  -0.947  53.097  1.00  0.00    +0.047 A 
ATOM     10  N   UNL     1      27.357   0.640  54.868  1.00  0.00    -0.239 NA
ATOM     11  C   UNL     1      28.522  -1.210  53.145  1.00  0.00    +0.005 A 
ATOM     12  C   UNL     1      28.681   0.372  54.902  1.00  0.00    +0.113 A 
ATOM     13  C   UNL     1      29.307  -0.534  54.066  1.00  0.00    +0.020 A 
ENDBRANCH   5   8
ENDBRANCH   4   5
ENDBRANCH   3   4
ENDBRANCH   1   3
BRANCH   2  14
ATOM     14  N   UNL     1      20.478  -1.524  54.578  1.00  0.00    -0.260 N 
ATOM     15  H   UNL     1      20.090  -1.753  55.487  1.00  0.00    +0.192 HD
BRANCH  14  16
ATOM     16  C   UNL     1      19.561  -1.159  53.581  1.00  0.00    +0.059 A 
ATOM     17  C   UNL     1      18.248  -1.629  53.553  1.00  0.00    +0.030 A 
ATOM     18  C   UNL     1      19.923  -0.199  52.629  1.00  0.00    +0.040 A 
ATOM     19  C   UNL     1      17.352  -1.194  52.569  1.00  0.00    +0.031 A 
ATOM     20  C   UNL     1      19.013   0.253  51.635  1.00  0.00    +0.029 A 
ATOM     21  C   UNL     1      17.714  -0.267  51.604  1.00  0.00    +0.074 A 
ATOM     22  C   UNL     1      19.291   1.199  50.632  1.00  0.00    +0.082 A 
ATOM     23  N   UNL     1      16.806   0.092  50.690  1.00  0.00    -0.236 NA
ATOM     24  N   UNL     1      18.392   1.562  49.689  1.00  0.00    -0.236 NA
ATOM     25  C   UNL     1      17.191   0.988  49.772  1.00  0.00    +0.223 A 
BRANCH  22  26
ATOM     26  C   UNL     1      20.585   1.889  50.501  1.00  0.00    +0.002 A 
ATOM     27  C   UNL     1      21.554   1.422  49.597  1.00  0.00    +0.010 A 
ATOM     28  C   UNL     1      20.875   3.038  51.255  1.00  0.00    +0.030 A 
ATOM     29  C   UNL     1      22.785   2.069  49.464  1.00  0.00    +0.002 A 
ATOM     30  C   UNL     1      22.105   3.681  51.119  1.00  0.00    +0.041 A 
ATOM     31  C   UNL     1      23.063   3.199  50.230  1.00  0.00    +0.020 A 
ATOM     32 Cl   UNL     1      22.445   5.080  52.063  1.00  0.00    -0.084 Cl
ENDBRANCH  22  26
ENDBRANCH  14  16
ENDBRANCH   2  14
TORSDOF 8
ENDMDL
MODEL 2
REMARK VINA RESULT:    -8.180      3.265      6.117
REMARK INTER + INTRA:         -13.602
REMARK INTER:                 -11.418
REMARK INTRA:                  -2.184
REMARK UNBOUND:                -1.597
REMARK SMILES CCN(CC/N=N/Nc1ccc2ncnc(-c3cccc(Cl)c3)c2c1)c1ccccn1
REMARK SMILES IDX 6 1 7 2 5 3 4 4 3 5 2 6 1 7 26 8 27 9 31 10 28 11 30 12
REMARK SMILES IDX 29 13 8 14 9 16 10 17 25 18 11 19 24 20 12 21 16 22 13 23
REMARK SMILES IDX 15 24 14 25 17 26 18 27 23 28 19 29 21 30 20 31 22 32
REMARK H PARENT 8 15
ROOT
ATOM      1  N   UNL     1      21.628   3.356  47.841  1.00  0.00    -0.169 NA
ATOM      2  N   UNL     1      22.353   2.392  48.145  1.00  0.00    -0.075 NA
ENDROOT
BRANCH   1   3
ATOM      3  C   UNL     1      22.413   4.577  47.581  1.00  0.00    +0.190 C 
BRANCH   3   4
ATOM      4  C   UNL     1      22.431   5.452  48.842  1.00  0.00    +0.143 C 
BRANCH   4   5
ATOM      5  N   UNL     1      23.275   4.911  49.929  1.00  0.00    -0.355 N 
BRANCH   5   6
ATOM      6  C   UNL     1      23.004   5.465  51.267  1.00  0.00    +0.114 C 
ATOM      7  C   UNL     1      22.217   4.479  52.119  1.00  0.00    +0.027 C 
ENDBRANCH   5   6
BRANCH   5   8
ATOM      8  C   UNL     1      24.637   4.822  49.590  1.00  0.00    +0.128 A 
ATOM      9  C   UNL     1      25.312   3.611  49.758  1.00  0.00    +0.047 A 
ATOM     10  N   UNL     1      25.282   5.907  49.106  1.00  0.00    -0.239 NA
ATOM     11  C   UNL     1      26.660   3.508  49.416  1.00  0.00    +0.005 A 
ATOM     12  C   UNL     1      26.589   5.790  48.782  1.00  0.00    +0.113 A 
ATOM     13  C   UNL     1      27.315   4.621  48.913  1.00  0.00    +0.020 A 
ENDBRANCH   5   8
ENDBRANCH   4   5
ENDBRANCH   3   4
ENDBRANCH   1   3
BRANCH   2  14
ATOM     14  N   UNL     1      21.517   1.362  48.365  1.00  0.00    -0.260 N 
ATOM     15  H   UNL     1      21.655   0.561  47.759  1.00  0.00    +0.192 HD
BRANCH  14  16
ATOM     16  C   UNL     1      21.094   1.089  49.675  1.00  0.00    +0.059 A 
ATOM     17  C   UNL     1      19.757   0.864  50.005  1.00  0.00    +0.030 A 
ATOM     18  C   UNL     1      22.045   0.921  50.687  1.00  0.00    +0.040 A 
ATOM     19  C   UNL     1      19.387   0.541  51.316  1.00  0.00    +0.031 A 
ATOM     20  C   UNL     1      21.674   0.583  52.017  1.00  0.00    +0.029 A 
ATOM     21  C   UNL     1      20.322   0.405  52.330  1.00  0.00    +0.074 A 
ATOM     22  C   UNL     1      22.556   0.409  53.100  1.00  0.00    +0.082 A 
ATOM     23  N   UNL     1      19.892   0.105  53.560  1.00  0.00    -0.236 NA
ATOM     24  N   UNL     1      22.138   0.123  54.353  1.00  0.00    -0.236 NA
ATOM     25  C   UNL     1      20.821  -0.018  54.516  1.00  0.00    +0.223 A 
BRANCH  22  26
ATOM     26  C   UNL     1      24.019   0.523  52.983  1.00  0.00    +0.002 A 
ATOM     27  C   UNL     1      24.638   1.784  52.979  1.00  0.00    +0.010 A 
ATOM     28  C   UNL     1      24.832  -0.620  52.896  1.00  0.00    +0.030 A 
ATOM     29  C   UNL     1      26.026   1.905  52.870  1.00  0.00    +0.002 A 
ATOM     30  C   UNL     1      26.217  -0.495  52.787  1.00  0.00    +0.041 A 
ATOM     31  C   UNL     1      26.817   0.761  52.770  1.00  0.00    +0.020 A 
ATOM     32 Cl   UNL     1      27.193  -1.908  52.668  1.00  0.00    -0.084 Cl
ENDBRANCH  22  26
ENDBRANCH  14  16
ENDBRANCH   2  14
TORSDOF 8
ENDMDL
MODEL 3
REMARK VINA RESULT:    -8.123      3.863      6.972
REMARK INTER + INTRA:         -13.519
REMARK INTER:                 -12.431
REMARK INTRA:                  -1.089
REMARK UNBOUND:                -1.597
REMARK SMILES CCN(CC/N=N/Nc1ccc2ncnc(-c3cccc(Cl)c3)c2c1)c1ccccn1
REMARK SMILES IDX 6 1 7 2 5 3 4 4 3 5 2 6 1 7 26 8 27 9 31 10 28 11 30 12
REMARK SMILES IDX 29 13 8 14 9 16 10 17 25 18 11 19 24 20 12 21 16 22 13 23
REMARK SMILES IDX 15 24 14 25 17 26 18 27 23 28 19 29 21 30 20 31 22 32
REMARK H PARENT 8 15
ROOT
ATOM      1  N   UNL     1      22.031   3.651  51.506  1.00  0.00    -0.169 NA
ATOM      2  N   UNL     1      22.806   3.012  50.772  1.00  0.00    -0.075 NA
ENDROOT
BRANCH   1   3
ATOM      3  C   UNL     1      22.461   5.051  51.678  1.00  0.00    +0.190 C 
BRANCH   3   4
ATOM      4  C   UNL     1      23.155   5.535  50.397  1.00  0.00    +0.143 C 
BRANCH   4   5
ATOM      5  N   UNL     1      24.310   6.424  50.646  1.00  0.00    -0.355 N 
BRANCH   5   6
ATOM      6  C   UNL     1      24.006   7.865  50.624  1.00  0.00    +0.114 C 
ATOM      7  C   UNL     1      22.840   8.166  49.693  1.00  0.00    +0.027 C 
ENDBRANCH   5   6
BRANCH   5   8
ATOM      8  C   UNL     1      25.467   6.052  49.939  1.00  0.00    +0.128 A 
ATOM      9  C   UNL     1      25.787   4.699  49.803  1.00  0.00    +0.047 A 
ATOM     10  N   UNL     1      26.260   7.003  49.399  1.00  0.00    -0.239 NA
ATOM     11  C   UNL     1      26.927   4.318  49.095  1.00  0.00    +0.005 A 
ATOM     12  C   UNL     1      27.361   6.616  48.718  1.00  0.00    +0.113 A 
ATOM     13  C   UNL     1      27.733   5.297  48.536  1.00  0.00    +0.020 A 
ENDBRANCH   5   8
ENDBRANCH   4   5
ENDBRANCH   3   4
ENDBRANCH   1   3
BRANCH   2  14
ATOM     14  N   UNL     1      22.306   1.765  50.713  1.00  0.00    -0.260 N 
ATOM     15  H   UNL     1      22.431   1.295  49.824  1.00  0.00    +0.192 HD
BRANCH  14  16
ATOM     16  C   UNL     1      22.345   0.955  51.859  1.00  0.00    +0.059 A 
ATOM     17  C   UNL     1      21.231   0.261  52.331  1.00  0.00    +0.030 A 
ATOM     18  C   UNL     1      23.566   0.733  52.506  1.00  0.00    +0.040 A 
ATOM     19  C   UNL     1      21.330  -0.579  53.447  1.00  0.00    +0.031 A 
ATOM     20  C   UNL     1      23.672  -0.127  53.633  1.00  0.00    +0.029 A 
ATOM     21  C   UNL     1      22.529  -0.779  54.111  1.00  0.00    +0.074 A 
ATOM     22  C   UNL     1      24.849  -0.399  54.354  1.00  0.00    +0.082 A 
ATOM     23  N   UNL     1      22.543  -1.587  55.177  1.00  0.00    -0.236 NA
ATOM     24  N   UNL     1      24.879  -1.200  55.443  1.00  0.00    -0.236 NA
ATOM     25  C   UNL     1      23.719  -1.756  55.795  1.00  0.00    +0.223 A 
BRANCH  22  26
ATOM     26  C   UNL     1      26.165   0.160  54.003  1.00  0.00    +0.002 A 
ATOM     27  C   UNL     1      26.339   1.548  53.875  1.00  0.00    +0.010 A 
ATOM     28  C   UNL     1      27.280  -0.673  53.811  1.00  0.00    +0.030 A 
ATOM     29  C   UNL     1      27.583   2.090  53.543  1.00  0.00    +0.002 A 
ATOM     30  C   UNL     1      28.520  -0.129  53.480  1.00  0.00    +0.041 A 
ATOM     31  C   UNL     1      28.676   1.249  53.341  1.00  0.00    +0.020 A 
ATOM     32 Cl   UNL     1      29.870  -1.168  53.236  1.00  0.00    -0.084 Cl
ENDBRANCH  22  26
ENDBRANCH  14  16
ENDBRANCH   2  14
TORSDOF 8
ENDMDL
MODEL 4
REMARK VINA RESULT:    -7.878      3.240      6.444
REMARK INTER + INTRA:         -13.160
REMARK INTER:                 -11.118
REMARK INTRA:                  -2.042
REMARK UNBOUND:                -1.597
REMARK SMILES CCN(CC/N=N/Nc1ccc2ncnc(-c3cccc(Cl)c3)c2c1)c1ccccn1
REMARK SMILES IDX 6 1 7 2 5 3 4 4 3 5 2 6 1 7 26 8 27 9 31 10 28 11 30 12
REMARK SMILES IDX 29 13 8 14 9 16 10 17 25 18 11 19 24 20 12 21 16 22 13 23
REMARK SMILES IDX 15 24 14 25 17 26 18 27 23 28 19 29 21 30 20 31 22 32
REMARK H PARENT 8 15
ROOT
ATOM      1  N   UNL     1      27.255   2.506  51.603  1.00  0.00    -0.169 NA
ATOM      2  N   UNL     1      26.602   2.769  50.577  1.00  0.00    -0.075 NA
ENDROOT
BRANCH   1   3
ATOM      3  C   UNL     1      26.930   1.170  52.137  1.00  0.00    +0.190 C 
BRANCH   3   4
ATOM      4  C   UNL     1      25.734   1.278  53.093  1.00  0.00    +0.143 C 
BRANCH   4   5
ATOM      5  N   UNL     1      24.468   0.772  52.520  1.00  0.00    -0.355 N 
BRANCH   5   6
ATOM      6  C   UNL     1      23.666   1.772  51.794  1.00  0.00    +0.114 C 
ATOM      7  C   UNL     1      23.585   3.079  52.571  1.00  0.00    +0.027 C 
ENDBRANCH   5   6
BRANCH   5   8
ATOM      8  C   UNL     1      23.739  -0.044  53.403  1.00  0.00    +0.128 A 
ATOM      9  C   UNL     1      22.384  -0.283  53.161  1.00  0.00    +0.047 A 
ATOM     10  N   UNL     1      24.352  -0.588  54.476  1.00  0.00    -0.239 NA
ATOM     11  C   UNL     1      21.653  -1.099  54.024  1.00  0.00    +0.005 A 
ATOM     12  C   UNL     1      23.628  -1.375  55.303  1.00  0.00    +0.113 A 
ATOM     13  C   UNL     1      22.289  -1.662  55.120  1.00  0.00    +0.020 A 
ENDBRANCH   5   8
ENDBRANCH   4   5
ENDBRANCH   3   4
ENDBRANCH   1   3
BRANCH   2  14
ATOM     14  N   UNL     1      26.983   4.005  50.210  1.00  0.00    -0.260 N 
ATOM     15  H   UNL     1      27.951   4.087  49.919  1.00  0.00    +0.192 HD
BRANCH  14  16
ATOM     16  C   UNL     1      26.063   4.843  49.561  1.00  0.00    +0.059 A 
ATOM     17  C   UNL     1      26.423   6.067  48.997  1.00  0.00    +0.030 A 
ATOM     18  C   UNL     1      24.750   4.402  49.361  1.00  0.00    +0.040 A 
ATOM     19  C   UNL     1      25.482   6.844  48.311  1.00  0.00    +0.031 A 
ATOM     20  C   UNL     1      23.795   5.183  48.656  1.00  0.00    +0.029 A 
ATOM     21  C   UNL     1      24.172   6.428  48.138  1.00  0.00    +0.074 A 
ATOM     22  C   UNL     1      22.453   4.831  48.420  1.00  0.00    +0.082 A 
ATOM     23  N   UNL     1      23.327   7.230  47.480  1.00  0.00    -0.236 NA
ATOM     24  N   UNL     1      21.581   5.635  47.773  1.00  0.00    -0.236 NA
ATOM     25  C   UNL     1      22.070   6.797  47.332  1.00  0.00    +0.223 A 
BRANCH  22  26
ATOM     26  C   UNL     1      21.860   3.556  48.855  1.00  0.00    +0.002 A 
ATOM     27  C   UNL     1      22.171   2.360  48.187  1.00  0.00    +0.010 A 
ATOM     28  C   UNL     1      20.990   3.498  49.957  1.00  0.00    +0.030 A 
ATOM     29  C   UNL     1      21.614   1.144  48.591  1.00  0.00    +0.002 A 
ATOM     30  C   UNL     1      20.436   2.282  50.357  1.00  0.00    +0.041 A 
ATOM     31  C   UNL     1      20.741   1.106  49.677  1.00  0.00    +0.020 A 
ATOM     32 Cl   UNL     1      19.362   2.236  51.701  1.00  0.00    -0.084 Cl
ENDBRANCH  22  26
ENDBRANCH  14  16
ENDBRANCH   2  14
TORSDOF 8
ENDMDL
MODEL 5
REMARK VINA RESULT:    -7.819      2.796      7.146
REMARK INTER + INTRA:         -13.073
REMARK INTER:                 -10.945
REMARK INTRA:                  -2.128
REMARK UNBOUND:                -1.597
REMARK SMILES CCN(CC/N=N/Nc1ccc2ncnc(-c3cccc(Cl)c3)c2c1)c1ccccn1
REMARK SMILES IDX 6 1 7 2 5 3 4 4 3 5 2 6 1 7 26 8 27 9 31 10 28 11 30 12
REMARK SMILES IDX 29 13 8 14 9 16 10 17 25 18 11 19 24 20 12 21 16 22 13 23
REMARK SMILES IDX 15 24 14 25 17 26 18 27 23 28 19 29 21 30 20 31 22 32
REMARK H PARENT 8 15
ROOT
ATOM      1  N   UNL     1      26.817   3.411  49.726  1.00  0.00    -0.169 NA
ATOM      2  N   UNL     1      26.385   3.021  50.826  1.00  0.00    -0.075 NA
ENDROOT
BRANCH   1   3
ATOM      3  C   UNL     1      26.323   4.758  49.384  1.00  0.00    +0.190 C 
BRANCH   3   4
ATOM      4  C   UNL     1      25.096   5.087  50.246  1.00  0.00    +0.143 C 
BRANCH   4   5
ATOM      5  N   UNL     1      23.909   5.487  49.461  1.00  0.00    -0.355 N 
BRANCH   5   6
ATOM      6  C   UNL     1      23.018   6.456  50.122  1.00  0.00    +0.114 C 
ATOM      7  C   UNL     1      23.752   7.754  50.429  1.00  0.00    +0.027 C 
ENDBRANCH   5   6
BRANCH   5   8
ATOM      8  C   UNL     1      23.254   4.405  48.844  1.00  0.00    +0.128 A 
ATOM      9  C   UNL     1      23.245   3.157  49.471  1.00  0.00    +0.047 A 
ATOM     10  N   UNL     1      22.641   4.581  47.653  1.00  0.00    -0.239 NA
ATOM     11  C   UNL     1      22.590   2.080  48.874  1.00  0.00    +0.005 A 
ATOM     12  C   UNL     1      22.013   3.526  47.089  1.00  0.00    +0.113 A 
ATOM     13  C   UNL     1      21.956   2.267  47.656  1.00  0.00    +0.020 A 
ENDBRANCH   5   8
ENDBRANCH   4   5
ENDBRANCH   3   4
ENDBRANCH   1   3
BRANCH   2  14
ATOM     14  N   UNL     1      26.898   1.791  51.003  1.00  0.00    -0.260 N 
ATOM     15  H   UNL     1      27.880   1.698  50.769  1.00  0.00    +0.192 HD
BRANCH  14  16
ATOM     16  C   UNL     1      26.430   0.998  52.062  1.00  0.00    +0.059 A 
ATOM     17  C   UNL     1      27.280   0.403  52.994  1.00  0.00    +0.030 A 
ATOM     18  C   UNL     1      25.052   0.878  52.277  1.00  0.00    +0.040 A 
ATOM     19  C   UNL     1      26.765  -0.334  54.066  1.00  0.00    +0.031 A 
ATOM     20  C   UNL     1      24.525   0.139  53.371  1.00  0.00    +0.029 A 
ATOM     21  C   UNL     1      25.402  -0.484  54.267  1.00  0.00    +0.074 A 
ATOM     22  C   UNL     1      23.161  -0.050  53.658  1.00  0.00    +0.082 A 
ATOM     23  N   UNL     1      24.985  -1.212  55.308  1.00  0.00    -0.236 NA
ATOM     24  N   UNL     1      22.720  -0.796  54.696  1.00  0.00    -0.236 NA
ATOM     25  C   UNL     1      23.662  -1.337  55.471  1.00  0.00    +0.223 A 
BRANCH  22  26
ATOM     26  C   UNL     1      22.074   0.540  52.860  1.00  0.00    +0.002 A 
ATOM     27  C   UNL     1      21.196  -0.280  52.132  1.00  0.00    +0.010 A 
ATOM     28  C   UNL     1      21.871   1.930  52.824  1.00  0.00    +0.030 A 
ATOM     29  C   UNL     1      20.160   0.268  51.372  1.00  0.00    +0.002 A 
ATOM     30  C   UNL     1      20.836   2.475  52.064  1.00  0.00    +0.041 A 
ATOM     31  C   UNL     1      19.982   1.650  51.335  1.00  0.00    +0.020 A 
ATOM     32 Cl   UNL     1      20.615   4.181  52.023  1.00  0.00    -0.084 Cl
ENDBRANCH  22  26
ENDBRANCH  14  16
ENDBRANCH   2  14
TORSDOF 8
ENDMDL
MODEL 6
REMARK VINA RESULT:    -7.809      3.491      6.453
REMARK INTER + INTRA:         -13.058
REMARK INTER:                 -10.769
REMARK INTRA:                  -2.288
REMARK UNBOUND:                -1.597
REMARK SMILES CCN(CC/N=N/Nc1ccc2ncnc(-c3cccc(Cl)c3)c2c1)c1ccccn1
REMARK SMILES IDX 6 1 7 2 5 3 4 4 3 5 2 6 1 7 26 8 27 9 31 10 28 11 30 12
REMARK SMILES IDX 29 13 8 14 9 16 10 17 25 18 11 19 24 20 12 21 16 22 13 23
REMARK SMILES IDX 15 24 14 25 17 26 18 27 23 28 19 29 21 30 20 31 22 32
REMARK H PARENT 8 15
ROOT
ATOM      1  N   UNL     1      24.151   6.273  51.571  1.00  0.00    -0.169 NA
ATOM      2  N   UNL     1      22.949   6.401  51.277  1.00  0.00    -0.075 NA
ENDROOT
BRANCH   1   3
ATOM      3  C   UNL     1      25.024   7.063  50.683  1.00  0.00    +0.190 C 
BRANCH   3   4
ATOM      4  C   UNL     1      25.356   6.242  49.429  1.00  0.00    +0.143 C 
BRANCH   4   5
ATOM      5  N   UNL     1      25.232   4.782  49.625  1.00  0.00    -0.355 N 
BRANCH   5   6
ATOM      6  C   UNL     1      26.478   4.018  49.442  1.00  0.00    +0.114 C 
ATOM      7  C   UNL     1      27.531   4.850  48.722  1.00  0.00    +0.027 C 
ENDBRANCH   5   6
BRANCH   5   8
ATOM      8  C   UNL     1      24.101   4.226  49.002  1.00  0.00    +0.128 A 
ATOM      9  C   UNL     1      23.755   2.897  49.259  1.00  0.00    +0.047 A 
ATOM     10  N   UNL     1      23.359   4.979  48.160  1.00  0.00    -0.239 NA
ATOM     11  C   UNL     1      22.629   2.338  48.655  1.00  0.00    +0.005 A 
ATOM     12  C   UNL     1      22.273   4.420  47.582  1.00  0.00    +0.113 A 
ATOM     13  C   UNL     1      21.867   3.117  47.798  1.00  0.00    +0.020 A 
ENDBRANCH   5   8
ENDBRANCH   4   5
ENDBRANCH   3   4
ENDBRANCH   1   3
BRANCH   2  14
ATOM     14  N   UNL     1      22.276   5.627  52.147  1.00  0.00    -0.260 N 
ATOM     15  H   UNL     1      22.104   6.049  53.052  1.00  0.00    +0.192 HD
BRANCH  14  16
ATOM     16  C   UNL     1      21.289   4.753  51.667  1.00  0.00    +0.059 A 
ATOM     17  C   UNL     1      20.333   5.137  50.727  1.00  0.00    +0.030 A 
ATOM     18  C   UNL     1      21.315   3.406  52.049  1.00  0.00    +0.040 A 
ATOM     19  C   UNL     1      19.400   4.215  50.235  1.00  0.00    +0.031 A 
ATOM     20  C   UNL     1      20.377   2.465  51.544  1.00  0.00    +0.029 A 
ATOM     21  C   UNL     1      19.400   2.887  50.634  1.00  0.00    +0.074 A 
ATOM     22  C   UNL     1      20.315   1.101  51.880  1.00  0.00    +0.082 A 
ATOM     23  N   UNL     1      18.472   2.068  50.129  1.00  0.00    -0.236 NA
ATOM     24  N   UNL     1      19.374   0.261  51.393  1.00  0.00    -0.236 NA
ATOM     25  C   UNL     1      18.500   0.793  50.536  1.00  0.00    +0.223 A 
BRANCH  22  26
ATOM     26  C   UNL     1      21.263   0.446  52.796  1.00  0.00    +0.002 A 
ATOM     27  C   UNL     1      20.817  -0.114  54.005  1.00  0.00    +0.010 A 
ATOM     28  C   UNL     1      22.628   0.344  52.478  1.00  0.00    +0.030 A 
ATOM     29  C   UNL     1      21.707  -0.738  54.882  1.00  0.00    +0.002 A 
ATOM     30  C   UNL     1      23.514  -0.280  53.356  1.00  0.00    +0.041 A 
ATOM     31  C   UNL     1      23.061  -0.817  54.558  1.00  0.00    +0.020 A 
ATOM     32 Cl   UNL     1      25.184  -0.381  52.953  1.00  0.00    -0.084 Cl
ENDBRANCH  22  26
ENDBRANCH  14  16
ENDBRANCH   2  14
TORSDOF 8
ENDMDL
MODEL 7
REMARK VINA RESULT:    -7.747      3.039      6.407
REMARK INTER + INTRA:         -12.966
REMARK INTER:                 -11.139
REMARK INTRA:                  -1.827
REMARK UNBOUND:                -1.597
REMARK SMILES CCN(CC/N=N/Nc1ccc2ncnc(-c3cccc(Cl)c3)c2c1)c1ccccn1
REMARK SMILES IDX 6 1 7 2 5 3 4 4 3 5 2 6 1 7 26 8 27 9 31 10 28 11 30 12
REMARK SMILES IDX 29 13 8 14 9 16 10 17 25 18 11 19 24 20 12 21 16 22 13 23
REMARK SMILES IDX 15 24 14 25 17 26 18 27 23 28 19 29 21 30 20 31 22 32
REMARK H PARENT 8 15
ROOT
ATOM      1  N   UNL     1      26.888   2.840  51.095  1.00  0.00    -0.169 NA
ATOM      2  N   UNL     1      26.209   1.803  51.203  1.00  0.00    -0.075 NA
ENDROOT
BRANCH   1   3
ATOM      3  C   UNL     1      26.703   3.487  49.783  1.00  0.00    +0.190 C 
BRANCH   3   4
ATOM      4  C   UNL     1      25.204   3.670  49.508  1.00  0.00    +0.143 C 
BRANCH   4   5
ATOM      5  N   UNL     1      24.530   4.568  50.469  1.00  0.00    -0.355 N 
BRANCH   5   6
ATOM      6  C   UNL     1      23.289   4.036  51.059  1.00  0.00    +0.114 C 
ATOM      7  C   UNL     1      23.339   4.088  52.580  1.00  0.00    +0.027 C 
ENDBRANCH   5   6
BRANCH   5   8
ATOM      8  C   UNL     1      24.452   5.903  50.031  1.00  0.00    +0.128 A 
ATOM      9  C   UNL     1      24.451   6.180  48.662  1.00  0.00    +0.047 A 
ATOM     10  N   UNL     1      24.380   6.904  50.935  1.00  0.00    -0.239 NA
ATOM     11  C   UNL     1      24.364   7.498  48.216  1.00  0.00    +0.005 A 
ATOM     12  C   UNL     1      24.299   8.176  50.485  1.00  0.00    +0.113 A 
ATOM     13  C   UNL     1      24.283   8.522  49.148  1.00  0.00    +0.020 A 
ENDBRANCH   5   8
ENDBRANCH   4   5
ENDBRANCH   3   4
ENDBRANCH   1   3
BRANCH   2  14
ATOM     14  N   UNL     1      26.480   1.316  52.427  1.00  0.00    -0.260 N 
ATOM     15  H   UNL     1      27.058   1.914  53.008  1.00  0.00    +0.192 HD
BRANCH  14  16
ATOM     16  C   UNL     1      25.512   0.547  53.090  1.00  0.00    +0.059 A 
ATOM     17  C   UNL     1      25.800  -0.221  54.218  1.00  0.00    +0.030 A 
ATOM     18  C   UNL     1      24.174   0.627  52.688  1.00  0.00    +0.040 A 
ATOM     19  C   UNL     1      24.790  -0.929  54.880  1.00  0.00    +0.031 A 
ATOM     20  C   UNL     1      23.144  -0.083  53.364  1.00  0.00    +0.029 A 
ATOM     21  C   UNL     1      23.468  -0.880  54.467  1.00  0.00    +0.074 A 
ATOM     22  C   UNL     1      21.779  -0.077  53.024  1.00  0.00    +0.082 A 
ATOM     23  N   UNL     1      22.560  -1.593  55.143  1.00  0.00    -0.236 NA
ATOM     24  N   UNL     1      20.850  -0.804  53.684  1.00  0.00    -0.236 NA
ATOM     25  C   UNL     1      21.293  -1.524  54.717  1.00  0.00    +0.223 A 
BRANCH  22  26
ATOM     26  C   UNL     1      21.221   0.715  51.915  1.00  0.00    +0.002 A 
ATOM     27  C   UNL     1      21.492   0.366  50.582  1.00  0.00    +0.010 A 
ATOM     28  C   UNL     1      20.389   1.821  52.160  1.00  0.00    +0.030 A 
ATOM     29  C   UNL     1      20.967   1.110  49.522  1.00  0.00    +0.002 A 
ATOM     30  C   UNL     1      19.867   2.561  51.099  1.00  0.00    +0.041 A 
ATOM     31  C   UNL     1      20.156   2.213  49.782  1.00  0.00    +0.020 A 
ATOM     32 Cl   UNL     1      18.861   3.920  51.421  1.00  0.00    -0.084 Cl
ENDBRANCH  22  26
ENDBRANCH  14  16
ENDBRANCH   2  14
TORSDOF 8
ENDMDL
MODEL 8
REMARK VINA RESULT:    -7.670      2.852      7.561
REMARK INTER + INTRA:         -12.853
REMARK INTER:                 -10.746
REMARK INTRA:                  -2.107
REMARK UNBOUND:                -1.597
REMARK SMILES CCN(CC/N=N/Nc1ccc2ncnc(-c3cccc(Cl)c3)c2c1)c1ccccn1
REMARK SMILES IDX 6 1 7 2 5 3 4 4 3 5 2 6 1 7 26 8 27 9 31 10 28 11 30 12
REMARK SMILES IDX 29 13 8 14 9 16 10 17 25 18 11 19 24 20 12 21 16 22 13 23
REMARK SMILES IDX 15 24 14 25 17 26 18 27 23 28 19 29 21 30 20 31 22 32
REMARK H PARENT 8 15
ROOT
ATOM      1  N   UNL     1      19.239   3.968  51.707  1.00  0.00    -0.169 NA
ATOM      2  N   UNL     1      20.140   3.486  52.418  1.00  0.00    -0.075 NA
ENDROOT
BRANCH   1   3
ATOM      3  C   UNL     1      18.033   3.120  51.692  1.00  0.00    +0.190 C 
BRANCH   3   4
ATOM      4  C   UNL     1      17.840   2.530  50.288  1.00  0.00    +0.143 C 
BRANCH   4   5
ATOM      5  N   UNL     1      18.725   1.381  50.000  1.00  0.00    -0.355 N 
BRANCH   5   6
ATOM      6  C   UNL     1      18.904   0.433  51.113  1.00  0.00    +0.114 C 
ATOM      7  C   UNL     1      17.668  -0.438  51.295  1.00  0.00    +0.027 C 
ENDBRANCH   5   6
BRANCH   5   8
ATOM      8  C   UNL     1      19.909   1.739  49.331  1.00  0.00    +0.128 A 
ATOM      9  C   UNL     1      21.108   1.104  49.664  1.00  0.00    +0.047 A 
ATOM     10  N   UNL     1      19.879   2.694  48.376  1.00  0.00    -0.239 NA
ATOM     11  C   UNL     1      22.287   1.443  49.001  1.00  0.00    +0.005 A 
ATOM     12  C   UNL     1      21.032   3.012  47.745  1.00  0.00    +0.113 A 
ATOM     13  C   UNL     1      22.250   2.418  48.016  1.00  0.00    +0.020 A 
ENDBRANCH   5   8
ENDBRANCH   4   5
ENDBRANCH   3   4
ENDBRANCH   1   3
BRANCH   2  14
ATOM     14  N   UNL     1      21.171   4.344  52.331  1.00  0.00    -0.260 N 
ATOM     15  H   UNL     1      21.185   5.071  53.037  1.00  0.00    +0.192 HD
BRANCH  14  16
ATOM     16  C   UNL     1      22.419   3.875  51.893  1.00  0.00    +0.059 A 
ATOM     17  C   UNL     1      23.235   4.597  51.023  1.00  0.00    +0.030 A 
ATOM     18  C   UNL     1      22.936   2.688  52.426  1.00  0.00    +0.040 A 
ATOM     19  C   UNL     1      24.497   4.115  50.656  1.00  0.00    +0.031 A 
ATOM     20  C   UNL     1      24.221   2.200  52.064  1.00  0.00    +0.029 A 
ATOM     21  C   UNL     1      25.001   2.924  51.156  1.00  0.00    +0.074 A 
ATOM     22  C   UNL     1      24.815   1.014  52.534  1.00  0.00    +0.082 A 
ATOM     23  N   UNL     1      26.211   2.522  50.751  1.00  0.00    -0.236 NA
ATOM     24  N   UNL     1      26.028   0.583  52.124  1.00  0.00    -0.236 NA
ATOM     25  C   UNL     1      26.666   1.367  51.252  1.00  0.00    +0.223 A 
BRANCH  22  26
ATOM     26  C   UNL     1      24.178   0.119  53.514  1.00  0.00    +0.002 A 
ATOM     27  C   UNL     1      24.909  -0.379  54.605  1.00  0.00    +0.010 A 
ATOM     28  C   UNL     1      22.824  -0.239  53.399  1.00  0.00    +0.030 A 
ATOM     29  C   UNL     1      24.316  -1.228  55.543  1.00  0.00    +0.002 A 
ATOM     30  C   UNL     1      22.235  -1.086  54.337  1.00  0.00    +0.041 A 
ATOM     31  C   UNL     1      22.976  -1.586  55.406  1.00  0.00    +0.020 A 
ATOM     32 Cl   UNL     1      20.579  -1.524  54.169  1.00  0.00    -0.084 Cl
ENDBRANCH  22  26
ENDBRANCH  14  16
ENDBRANCH   2  14
TORSDOF 8
ENDMDL
MODEL 9
REMARK VINA RESULT:    -7.542      3.210      6.821
REMARK INTER + INTRA:         -12.666
REMARK INTER:                 -10.182
REMARK INTRA:                  -2.484
REMARK UNBOUND:                -1.597
REMARK SMILES CCN(CC/N=N/Nc1ccc2ncnc(-c3cccc(Cl)c3)c2c1)c1ccccn1
REMARK SMILES IDX 6 1 7 2 5 3 4 4 3 5 2 6 1 7 26 8 27 9 31 10 28 11 30 12
REMARK SMILES IDX 29 13 8 14 9 16 10 17 25 18 11 19 24 20 12 21 16 22 13 23
REMARK SMILES IDX 15 24 14 25 17 26 18 27 23 28 19 29 21 30 20 31 22 32
REMARK H PARENT 8 15
ROOT
ATOM      1  N   UNL     1      21.326   3.176  47.318  1.00  0.00    -0.169 NA
ATOM      2  N   UNL     1      22.303   2.764  47.969  1.00  0.00    -0.075 NA
ENDROOT
BRANCH   1   3
ATOM      3  C   UNL     1      21.491   4.581  46.903  1.00  0.00    +0.190 C 
BRANCH   3   4
ATOM      4  C   UNL     1      22.537   5.260  47.798  1.00  0.00    +0.143 C 
BRANCH   4   5
ATOM      5  N   UNL     1      21.952   6.072  48.886  1.00  0.00    -0.355 N 
BRANCH   5   6
ATOM      6  C   UNL     1      22.249   7.513  48.820  1.00  0.00    +0.114 C 
ATOM      7  C   UNL     1      21.153   8.331  49.491  1.00  0.00    +0.027 C 
ENDBRANCH   5   6
BRANCH   5   8
ATOM      8  C   UNL     1      22.099   5.495  50.160  1.00  0.00    +0.128 A 
ATOM      9  C   UNL     1      21.030   4.798  50.728  1.00  0.00    +0.047 A 
ATOM     10  N   UNL     1      23.269   5.619  50.823  1.00  0.00    -0.239 NA
ATOM     11  C   UNL     1      21.167   4.213  51.987  1.00  0.00    +0.005 A 
ATOM     12  C   UNL     1      23.384   5.047  52.042  1.00  0.00    +0.113 A 
ATOM     13  C   UNL     1      22.373   4.336  52.660  1.00  0.00    +0.020 A 
ENDBRANCH   5   8
ENDBRANCH   4   5
ENDBRANCH   3   4
ENDBRANCH   1   3
BRANCH   2  14
ATOM     14  N   UNL     1      22.016   1.490  48.290  1.00  0.00    -0.260 N 
ATOM     15  H   UNL     1      22.639   0.797  47.890  1.00  0.00    +0.192 HD
BRANCH  14  16
ATOM     16  C   UNL     1      21.494   1.202  49.560  1.00  0.00    +0.059 A 
ATOM     17  C   UNL     1      20.133   1.001  49.789  1.00  0.00    +0.030 A 
ATOM     18  C   UNL     1      22.367   0.994  50.634  1.00  0.00    +0.040 A 
ATOM     19  C   UNL     1      19.663   0.663  51.064  1.00  0.00    +0.031 A 
ATOM     20  C   UNL     1      21.895   0.640  51.927  1.00  0.00    +0.029 A 
ATOM     21  C   UNL     1      20.520   0.486  52.139  1.00  0.00    +0.074 A 
ATOM     22  C   UNL     1      22.692   0.426  53.066  1.00  0.00    +0.082 A 
ATOM     23  N   UNL     1      19.996   0.174  53.329  1.00  0.00    -0.236 NA
ATOM     24  N   UNL     1      22.180   0.126  54.280  1.00  0.00    -0.236 NA
ATOM     25  C   UNL     1      20.852   0.012  54.345  1.00  0.00    +0.223 A 
BRANCH  22  26
ATOM     26  C   UNL     1      24.162   0.509  53.056  1.00  0.00    +0.002 A 
ATOM     27  C   UNL     1      24.807   1.750  53.194  1.00  0.00    +0.010 A 
ATOM     28  C   UNL     1      24.954  -0.645  52.933  1.00  0.00    +0.030 A 
ATOM     29  C   UNL     1      26.201   1.841  53.187  1.00  0.00    +0.002 A 
ATOM     30  C   UNL     1      26.346  -0.549  52.927  1.00  0.00    +0.041 A 
ATOM     31  C   UNL     1      26.972   0.688  53.049  1.00  0.00    +0.020 A 
ATOM     32 Cl   UNL     1      27.297  -1.974  52.761  1.00  0.00    -0.084 Cl
ENDBRANCH  22  26
ENDBRANCH  14  16
ENDBRANCH   2  14
TORSDOF 8
ENDMDL
