MODEL 1
REMARK VINA RESULT:    -8.990      0.000      0.000
REMARK INTER + INTRA:         -11.429
REMARK INTER:                 -10.566
REMARK INTRA:                  -0.862
REMARK UNBOUND:                -0.862
REMARK SMILES Cc1cccc(C=C2C(=O)N(C)c3ncnc(Nc4ccccc4)c32)c1
REMARK SMILES IDX 7 1 8 2 9 3 10 4 11 5 12 6 13 7 14 8 15 9 16 10 17 11 25 12
REMARK SMILES IDX 6 13 2 14 3 15 26 16 4 17 5 18 1 19 18 20 19 22 20 23 24 24
REMARK SMILES IDX 21 25 23 26 22 27
REMARK H PARENT 18 21
ROOT
ATOM      1  C   UNL     1      25.598   1.003  52.285  1.00  0.00    +0.023 C 
ATOM      2  C   UNL     1      24.413   0.543  52.720  1.00  0.00    +0.055 C 
ATOM      3  C   UNL     1      24.174  -0.348  53.918  1.00  0.00    +0.260 C 
ATOM      4  O   UNL     1      25.003  -0.877  54.632  1.00  0.00    -0.269 OA
ATOM      5  N   UNL     1      22.795  -0.426  54.026  1.00  0.00    -0.295 N 
ATOM      6  C   UNL     1      22.075  -1.149  55.037  1.00  0.00    +0.155 C 
ATOM      7  C   UNL     1      22.154   0.297  53.015  1.00  0.00    +0.148 A 
ATOM      8  N   UNL     1      20.829   0.382  52.883  1.00  0.00    -0.218 NA
ATOM      9  C   UNL     1      20.448   1.111  51.830  1.00  0.00    +0.226 A 
ATOM     10  N   UNL     1      21.260   1.709  50.938  1.00  0.00    -0.218 NA
ATOM     11  C   UNL     1      22.595   1.582  51.101  1.00  0.00    +0.144 A 
ATOM     12  C   UNL     1      23.091   0.882  52.179  1.00  0.00    +0.073 A 
ENDROOT
BRANCH   1  13
ATOM     13  C   UNL     1      26.923   0.690  52.830  1.00  0.00    -0.025 A 
ATOM     14  C   UNL     1      28.655  -0.969  53.274  1.00  0.00    -0.051 A 
ATOM     15  C   UNL     1      29.398   0.005  53.951  1.00  0.00    +0.003 A 
ATOM     16  C   UNL     1      27.410  -0.621  52.731  1.00  0.00    +0.011 A 
ATOM     17  C   UNL     1      28.915   1.309  54.063  1.00  0.00    +0.001 A 
ATOM     18  C   UNL     1      27.681   1.651  53.508  1.00  0.00    +0.008 A 
ATOM     19  C   UNL     1      29.158  -2.377  53.173  1.00  0.00    +0.044 C 
ENDBRANCH   1  13
BRANCH  11  20
ATOM     20  N   UNL     1      23.482   2.145  50.154  1.00  0.00    -0.340 N 
ATOM     21  H   UNL     1      23.204   1.852  49.223  1.00  0.00    +0.168 HD
BRANCH  20  22
ATOM     22  C   UNL     1      24.050   3.439  50.129  1.00  0.00    +0.040 A 
ATOM     23  C   UNL     1      25.243   3.642  49.418  1.00  0.00    +0.026 A 
ATOM     24  C   UNL     1      23.551   4.505  50.887  1.00  0.00    +0.026 A 
ATOM     25  C   UNL     1      25.882   4.888  49.415  1.00  0.00    +0.002 A 
ATOM     26  C   UNL     1      24.185   5.752  50.885  1.00  0.00    +0.002 A 
ATOM     27  C   UNL     1      25.348   5.945  50.144  1.00  0.00    +0.000 A 
ENDBRANCH  20  22
ENDBRANCH  11  20
TORSDOF 3
ENDMDL
MODEL 2
REMARK VINA RESULT:    -8.655      2.243      6.335
REMARK INTER + INTRA:         -11.035
REMARK INTER:                 -10.194
REMARK INTRA:                  -0.842
REMARK UNBOUND:                -0.862
REMARK SMILES Cc1cccc(C=C2C(=O)N(C)c3ncnc(Nc4ccccc4)c32)c1
REMARK SMILES IDX 7 1 8 2 9 3 10 4 11 5 12 6 13 7 14 8 15 9 16 10 17 11 25 12
REMARK SMILES IDX 6 13 2 14 3 15 26 16 4 17 5 18 1 19 18 20 19 22 20 23 24 24
REMARK SMILES IDX 21 25 23 26 22 27
REMARK H PARENT 18 21
ROOT
ATOM      1  C   UNL     1      23.186   1.528  51.264  1.00  0.00    +0.023 C 
ATOM      2  C   UNL     1      22.417   0.848  52.131  1.00  0.00    +0.055 C 
ATOM      3  C   UNL     1      20.917   0.676  52.066  1.00  0.00    +0.260 C 
ATOM      4  O   UNL     1      20.140   1.192  51.287  1.00  0.00    -0.269 OA
ATOM      5  N   UNL     1      20.621  -0.208  53.091  1.00  0.00    -0.295 N 
ATOM      6  C   UNL     1      19.313  -0.702  53.419  1.00  0.00    +0.155 C 
ATOM      7  C   UNL     1      21.767  -0.582  53.799  1.00  0.00    +0.148 A 
ATOM      8  N   UNL     1      21.764  -1.418  54.839  1.00  0.00    -0.218 NA
ATOM      9  C   UNL     1      22.975  -1.610  55.368  1.00  0.00    +0.226 A 
ATOM     10  N   UNL     1      24.124  -1.038  54.961  1.00  0.00    -0.218 NA
ATOM     11  C   UNL     1      24.079  -0.185  53.914  1.00  0.00    +0.144 A 
ATOM     12  C   UNL     1      22.882   0.052  53.274  1.00  0.00    +0.073 A 
ENDROOT
BRANCH   1  13
ATOM     13  C   UNL     1      22.737   2.309  50.106  1.00  0.00    -0.025 A 
ATOM     14  C   UNL     1      22.043   4.457  49.184  1.00  0.00    -0.051 A 
ATOM     15  C   UNL     1      21.771   3.831  47.962  1.00  0.00    +0.003 A 
ATOM     16  C   UNL     1      22.510   3.683  50.256  1.00  0.00    +0.011 A 
ATOM     17  C   UNL     1      21.984   2.461  47.808  1.00  0.00    +0.001 A 
ATOM     18  C   UNL     1      22.462   1.700  48.877  1.00  0.00    +0.008 A 
ATOM     19  C   UNL     1      21.792   5.924  49.360  1.00  0.00    +0.044 C 
ENDBRANCH   1  13
BRANCH  11  20
ATOM     20  N   UNL     1      25.251   0.484  53.492  1.00  0.00    -0.340 N 
ATOM     21  H   UNL     1      25.194   1.460  53.766  1.00  0.00    +0.168 HD
BRANCH  20  22
ATOM     22  C   UNL     1      26.590   0.029  53.516  1.00  0.00    +0.040 A 
ATOM     23  C   UNL     1      26.920  -1.142  52.815  1.00  0.00    +0.026 A 
ATOM     24  C   UNL     1      27.580   0.617  54.312  1.00  0.00    +0.026 A 
ATOM     25  C   UNL     1      28.215  -1.671  52.858  1.00  0.00    +0.002 A 
ATOM     26  C   UNL     1      28.876   0.091  54.356  1.00  0.00    +0.002 A 
ATOM     27  C   UNL     1      29.195  -1.049  53.625  1.00  0.00    +0.000 A 
ENDBRANCH  20  22
ENDBRANCH  11  20
TORSDOF 3
ENDMDL
MODEL 3
REMARK VINA RESULT:    -8.653      2.070      5.874
REMARK INTER + INTRA:         -11.033
REMARK INTER:                 -10.119
REMARK INTRA:                  -0.913
REMARK UNBOUND:                -0.862
REMARK SMILES Cc1cccc(C=C2C(=O)N(C)c3ncnc(Nc4ccccc4)c32)c1
REMARK SMILES IDX 7 1 8 2 9 3 10 4 11 5 12 6 13 7 14 8 15 9 16 10 17 11 25 12
REMARK SMILES IDX 6 13 2 14 3 15 26 16 4 17 5 18 1 19 18 20 19 22 20 23 24 24
REMARK SMILES IDX 21 25 23 26 22 27
REMARK H PARENT 18 21
ROOT
ATOM      1  C   UNL     1      25.054   3.044  50.938  1.00  0.00    +0.023 C 
ATOM      2  C   UNL     1      23.854   2.503  50.667  1.00  0.00    +0.055 C 
ATOM      3  C   UNL     1      22.982   2.793  49.467  1.00  0.00    +0.260 C 
ATOM      4  O   UNL     1      23.161   3.623  48.598  1.00  0.00    -0.269 OA
ATOM      5  N   UNL     1      21.930   1.898  49.575  1.00  0.00    -0.295 N 
ATOM      6  C   UNL     1      20.841   1.771  48.647  1.00  0.00    +0.155 C 
ATOM      7  C   UNL     1      22.041   1.103  50.720  1.00  0.00    +0.148 A 
ATOM      8  N   UNL     1      21.158   0.165  51.067  1.00  0.00    -0.218 NA
ATOM      9  C   UNL     1      21.463  -0.451  52.212  1.00  0.00    +0.226 A 
ATOM     10  N   UNL     1      22.523  -0.191  53.000  1.00  0.00    -0.218 NA
ATOM     11  C   UNL     1      23.382   0.779  52.620  1.00  0.00    +0.144 A 
ATOM     12  C   UNL     1      23.178   1.449  51.433  1.00  0.00    +0.073 A 
ENDROOT
BRANCH   1  13
ATOM     13  C   UNL     1      25.751   4.081  50.169  1.00  0.00    -0.025 A 
ATOM     14  C   UNL     1      25.848   6.394  49.402  1.00  0.00    -0.051 A 
ATOM     15  C   UNL     1      26.973   6.078  48.631  1.00  0.00    +0.003 A 
ATOM     16  C   UNL     1      25.233   5.383  50.155  1.00  0.00    +0.011 A 
ATOM     17  C   UNL     1      27.488   4.782  48.632  1.00  0.00    +0.001 A 
ATOM     18  C   UNL     1      26.878   3.784  49.395  1.00  0.00    +0.008 A 
ATOM     19  C   UNL     1      25.277   7.780  49.385  1.00  0.00    +0.044 C 
ENDBRANCH   1  13
BRANCH  11  20
ATOM     20  N   UNL     1      24.475   1.125  53.448  1.00  0.00    -0.340 N 
ATOM     21  H   UNL     1      24.130   1.358  54.374  1.00  0.00    +0.168 HD
BRANCH  20  22
ATOM     22  C   UNL     1      25.757   0.532  53.520  1.00  0.00    +0.040 A 
ATOM     23  C   UNL     1      26.782   1.214  54.194  1.00  0.00    +0.026 A 
ATOM     24  C   UNL     1      26.092  -0.644  52.839  1.00  0.00    +0.026 A 
ATOM     25  C   UNL     1      28.084   0.704  54.239  1.00  0.00    +0.002 A 
ATOM     26  C   UNL     1      27.392  -1.158  52.883  1.00  0.00    +0.002 A 
ATOM     27  C   UNL     1      28.388  -0.488  53.588  1.00  0.00    +0.000 A 
ENDBRANCH  20  22
ENDBRANCH  11  20
TORSDOF 3
ENDMDL
MODEL 4
REMARK VINA RESULT:    -8.322      2.047      6.283
REMARK INTER + INTRA:         -10.644
REMARK INTER:                  -9.500
REMARK INTRA:                  -1.144
REMARK UNBOUND:                -0.862
REMARK SMILES Cc1cccc(C=C2C(=O)N(C)c3ncnc(Nc4ccccc4)c32)c1
REMARK SMILES IDX 7 1 8 2 9 3 10 4 11 5 12 6 13 7 14 8 15 9 16 10 17 11 25 12
REMARK SMILES IDX 6 13 2 14 3 15 26 16 4 17 5 18 1 19 18 20 19 22 20 23 24 24
REMARK SMILES IDX 21 25 23 26 22 27
REMARK H PARENT 18 21
ROOT
ATOM      1  C   UNL     1      22.676   2.226  51.947  1.00  0.00    +0.023 C 
ATOM      2  C   UNL     1      23.394   1.245  52.519  1.00  0.00    +0.055 C 
ATOM      3  C   UNL     1      24.864   0.961  52.311  1.00  0.00    +0.260 C 
ATOM      4  O   UNL     1      25.624   1.499  51.530  1.00  0.00    -0.269 OA
ATOM      5  N   UNL     1      25.156  -0.049  53.213  1.00  0.00    -0.295 N 
ATOM      6  C   UNL     1      26.447  -0.648  53.409  1.00  0.00    +0.155 C 
ATOM      7  C   UNL     1      24.027  -0.439  53.939  1.00  0.00    +0.148 A 
ATOM      8  N   UNL     1      24.029  -1.396  54.868  1.00  0.00    -0.218 NA
ATOM      9  C   UNL     1      22.829  -1.608  55.413  1.00  0.00    +0.226 A 
ATOM     10  N   UNL     1      21.684  -0.975  55.093  1.00  0.00    -0.218 NA
ATOM     11  C   UNL     1      21.724  -0.024  54.135  1.00  0.00    +0.144 A 
ATOM     12  C   UNL     1      22.924   0.297  53.537  1.00  0.00    +0.073 A 
ENDROOT
BRANCH   1  13
ATOM     13  C   UNL     1      23.139   3.193  50.946  1.00  0.00    -0.025 A 
ATOM     14  C   UNL     1      24.014   5.412  50.442  1.00  0.00    -0.051 A 
ATOM     15  C   UNL     1      23.932   5.122  49.076  1.00  0.00    +0.003 A 
ATOM     16  C   UNL     1      23.599   4.447  51.370  1.00  0.00    +0.011 A 
ATOM     17  C   UNL     1      23.465   3.879  48.645  1.00  0.00    +0.001 A 
ATOM     18  C   UNL     1      23.067   2.918  49.576  1.00  0.00    +0.008 A 
ATOM     19  C   UNL     1      24.491   6.755  50.908  1.00  0.00    +0.044 C 
ENDBRANCH   1  13
BRANCH  11  20
ATOM     20  N   UNL     1      20.535   0.623  53.726  1.00  0.00    -0.340 N 
ATOM     21  H   UNL     1      20.731   1.605  53.562  1.00  0.00    +0.168 HD
BRANCH  20  22
ATOM     22  C   UNL     1      19.524   0.156  52.855  1.00  0.00    +0.040 A 
ATOM     23  C   UNL     1      19.366   0.778  51.606  1.00  0.00    +0.026 A 
ATOM     24  C   UNL     1      18.585  -0.812  53.228  1.00  0.00    +0.026 A 
ATOM     25  C   UNL     1      18.340   0.398  50.733  1.00  0.00    +0.002 A 
ATOM     26  C   UNL     1      17.559  -1.195  52.356  1.00  0.00    +0.002 A 
ATOM     27  C   UNL     1      17.440  -0.594  51.107  1.00  0.00    +0.000 A 
ENDBRANCH  20  22
ENDBRANCH  11  20
TORSDOF 3
ENDMDL
MODEL 5
REMARK VINA RESULT:    -8.190      1.953      6.261
REMARK INTER + INTRA:         -10.489
REMARK INTER:                  -9.866
REMARK INTRA:                  -0.623
REMARK UNBOUND:                -0.862
REMARK SMILES Cc1cccc(C=C2C(=O)N(C)c3ncnc(Nc4ccccc4)c32)c1
REMARK SMILES IDX 7 1 8 2 9 3 10 4 11 5 12 6 13 7 14 8 15 9 16 10 17 11 25 12
REMARK SMILES IDX 6 13 2 14 3 15 26 16 4 17 5 18 1 19 18 20 19 22 20 23 24 24
REMARK SMILES IDX 21 25 23 26 22 27
REMARK H PARENT 18 21
ROOT
ATOM      1  C   UNL     1      24.110   2.278  50.884  1.00  0.00    +0.023 C 
ATOM      2  C   UNL     1      23.292   1.757  51.813  1.00  0.00    +0.055 C 
ATOM      3  C   UNL     1      21.814   2.033  51.975  1.00  0.00    +0.260 C 
ATOM      4  O   UNL     1      21.134   2.834  51.365  1.00  0.00    -0.269 OA
ATOM      5  N   UNL     1      21.404   1.164  52.973  1.00  0.00    -0.295 N 
ATOM      6  C   UNL     1      20.062   1.035  53.469  1.00  0.00    +0.155 C 
ATOM      7  C   UNL     1      22.465   0.399  53.463  1.00  0.00    +0.148 A 
ATOM      8  N   UNL     1      22.346  -0.510  54.433  1.00  0.00    -0.218 NA
ATOM      9  C   UNL     1      23.501  -1.102  54.749  1.00  0.00    +0.226 A 
ATOM     10  N   UNL     1      24.706  -0.843  54.205  1.00  0.00    -0.218 NA
ATOM     11  C   UNL     1      24.783   0.098  53.238  1.00  0.00    +0.144 A 
ATOM     12  C   UNL     1      23.640   0.739  52.813  1.00  0.00    +0.073 A 
ENDROOT
BRANCH   1  13
ATOM     13  C   UNL     1      23.769   3.279  49.866  1.00  0.00    -0.025 A 
ATOM     14  C   UNL     1      23.744   5.615  49.168  1.00  0.00    -0.051 A 
ATOM     15  C   UNL     1      23.044   5.250  48.012  1.00  0.00    +0.003 A 
ATOM     16  C   UNL     1      24.087   4.624  50.098  1.00  0.00    +0.011 A 
ATOM     17  C   UNL     1      22.713   3.914  47.780  1.00  0.00    +0.001 A 
ATOM     18  C   UNL     1      23.071   2.931  48.705  1.00  0.00    +0.008 A 
ATOM     19  C   UNL     1      24.078   7.052  49.433  1.00  0.00    +0.044 C 
ENDBRANCH   1  13
BRANCH  11  20
ATOM     20  N   UNL     1      26.037   0.442  52.682  1.00  0.00    -0.340 N 
ATOM     21  H   UNL     1      26.043   1.434  52.466  1.00  0.00    +0.168 HD
BRANCH  20  22
ATOM     22  C   UNL     1      27.326  -0.002  53.055  1.00  0.00    +0.040 A 
ATOM     23  C   UNL     1      28.271   0.943  53.485  1.00  0.00    +0.026 A 
ATOM     24  C   UNL     1      27.752  -1.326  52.892  1.00  0.00    +0.026 A 
ATOM     25  C   UNL     1      29.580   0.565  53.804  1.00  0.00    +0.002 A 
ATOM     26  C   UNL     1      29.060  -1.707  53.210  1.00  0.00    +0.002 A 
ATOM     27  C   UNL     1      29.973  -0.763  53.672  1.00  0.00    +0.000 A 
ENDBRANCH  20  22
ENDBRANCH  11  20
TORSDOF 3
ENDMDL
MODEL 6
REMARK VINA RESULT:    -7.991      2.157      5.130
REMARK INTER + INTRA:         -10.254
REMARK INTER:                  -9.151
REMARK INTRA:                  -1.103
REMARK UNBOUND:                -0.862
REMARK SMILES Cc1cccc(C=C2C(=O)N(C)c3ncnc(Nc4ccccc4)c32)c1
REMARK SMILES IDX 7 1 8 2 9 3 10 4 11 5 12 6 13 7 14 8 15 9 16 10 17 11 25 12
REMARK SMILES IDX 6 13 2 14 3 15 26 16 4 17 5 18 1 19 18 20 19 22 20 23 24 24
REMARK SMILES IDX 21 25 23 26 22 27
REMARK H PARENT 18 21
ROOT
ATOM      1  C   UNL     1      23.986   1.936  52.680  1.00  0.00    +0.023 C 
ATOM      2  C   UNL     1      23.857   2.923  51.776  1.00  0.00    +0.055 C 
ATOM      3  C   UNL     1      24.948   3.492  50.898  1.00  0.00    +0.260 C 
ATOM      4  O   UNL     1      26.135   3.232  50.920  1.00  0.00    -0.269 OA
ATOM      5  N   UNL     1      24.293   4.378  50.058  1.00  0.00    -0.295 N 
ATOM      6  C   UNL     1      24.909   5.156  49.019  1.00  0.00    +0.155 C 
ATOM      7  C   UNL     1      22.924   4.437  50.333  1.00  0.00    +0.148 A 
ATOM      8  N   UNL     1      22.063   5.216  49.675  1.00  0.00    -0.218 NA
ATOM      9  C   UNL     1      20.810   5.120  50.128  1.00  0.00    +0.226 A 
ATOM     10  N   UNL     1      20.388   4.355  51.153  1.00  0.00    -0.218 NA
ATOM     11  C   UNL     1      21.297   3.595  51.802  1.00  0.00    +0.144 A 
ATOM     12  C   UNL     1      22.611   3.594  51.386  1.00  0.00    +0.073 A 
ENDROOT
BRANCH   1  13
ATOM     13  C   UNL     1      25.221   1.243  53.062  1.00  0.00    -0.025 A 
ATOM     14  C   UNL     1      26.618  -0.751  52.928  1.00  0.00    -0.051 A 
ATOM     15  C   UNL     1      27.506  -0.176  53.844  1.00  0.00    +0.003 A 
ATOM     16  C   UNL     1      25.468  -0.040  52.555  1.00  0.00    +0.011 A 
ATOM     17  C   UNL     1      27.260   1.096  54.362  1.00  0.00    +0.001 A 
ATOM     18  C   UNL     1      26.120   1.803  53.976  1.00  0.00    +0.008 A 
ATOM     19  C   UNL     1      26.865  -2.128  52.388  1.00  0.00    +0.044 C 
ENDBRANCH   1  13
BRANCH  11  20
ATOM     20  N   UNL     1      20.908   2.823  52.920  1.00  0.00    -0.340 N 
ATOM     21  H   UNL     1      20.527   3.438  53.633  1.00  0.00    +0.168 HD
BRANCH  20  22
ATOM     22  C   UNL     1      20.273   1.560  52.950  1.00  0.00    +0.040 A 
ATOM     23  C   UNL     1      20.749   0.582  53.837  1.00  0.00    +0.026 A 
ATOM     24  C   UNL     1      19.272   1.189  52.044  1.00  0.00    +0.026 A 
ATOM     25  C   UNL     1      20.199  -0.705  53.861  1.00  0.00    +0.002 A 
ATOM     26  C   UNL     1      18.719  -0.096  52.065  1.00  0.00    +0.002 A 
ATOM     27  C   UNL     1      19.178  -1.041  52.978  1.00  0.00    +0.000 A 
ENDBRANCH  20  22
ENDBRANCH  11  20
TORSDOF 3
ENDMDL
MODEL 7
REMARK VINA RESULT:    -7.951      2.023      2.358
REMARK INTER + INTRA:         -10.208
REMARK INTER:                  -9.329
REMARK INTRA:                  -0.879
REMARK UNBOUND:                -0.862
REMARK SMILES Cc1cccc(C=C2C(=O)N(C)c3ncnc(Nc4ccccc4)c32)c1
REMARK SMILES IDX 7 1 8 2 9 3 10 4 11 5 12 6 13 7 14 8 15 9 16 10 17 11 25 12
REMARK SMILES IDX 6 13 2 14 3 15 26 16 4 17 5 18 1 19 18 20 19 22 20 23 24 24
REMARK SMILES IDX 21 25 23 26 22 27
REMARK H PARENT 18 21
ROOT
ATOM      1  C   UNL     1      24.188   1.209  51.708  1.00  0.00    +0.023 C 
ATOM      2  C   UNL     1      22.983   0.681  51.980  1.00  0.00    +0.055 C 
ATOM      3  C   UNL     1      22.596  -0.098  53.217  1.00  0.00    +0.260 C 
ATOM      4  O   UNL     1      23.317  -0.462  54.125  1.00  0.00    -0.269 OA
ATOM      5  N   UNL     1      21.232  -0.303  53.088  1.00  0.00    -0.295 N 
ATOM      6  C   UNL     1      20.395  -0.984  54.036  1.00  0.00    +0.155 C 
ATOM      7  C   UNL     1      20.736   0.241  51.899  1.00  0.00    +0.148 A 
ATOM      8  N   UNL     1      19.457   0.178  51.525  1.00  0.00    -0.218 NA
ATOM      9  C   UNL     1      19.223   0.750  50.341  1.00  0.00    +0.226 A 
ATOM     10  N   UNL     1      20.138   1.329  49.540  1.00  0.00    -0.218 NA
ATOM     11  C   UNL     1      21.424   1.355  49.950  1.00  0.00    +0.144 A 
ATOM     12  C   UNL     1      21.764   0.826  51.176  1.00  0.00    +0.073 A 
ENDROOT
BRANCH   1  13
ATOM     13  C   UNL     1      25.409   1.090  52.514  1.00  0.00    -0.025 A 
ATOM     14  C   UNL     1      27.350  -0.231  53.173  1.00  0.00    -0.051 A 
ATOM     15  C   UNL     1      27.690   0.755  54.105  1.00  0.00    +0.003 A 
ATOM     16  C   UNL     1      26.197  -0.063  52.393  1.00  0.00    +0.011 A 
ATOM     17  C   UNL     1      26.905   1.901  54.239  1.00  0.00    +0.001 A 
ATOM     18  C   UNL     1      25.766   2.068  53.449  1.00  0.00    +0.008 A 
ATOM     19  C   UNL     1      28.176  -1.475  53.044  1.00  0.00    +0.044 C 
ENDBRANCH   1  13
BRANCH  11  20
ATOM     20  N   UNL     1      22.426   1.901  49.114  1.00  0.00    -0.340 N 
ATOM     21  H   UNL     1      22.862   1.151  48.586  1.00  0.00    +0.168 HD
BRANCH  20  22
ATOM     22  C   UNL     1      22.400   3.099  48.364  1.00  0.00    +0.040 A 
ATOM     23  C   UNL     1      21.922   3.064  47.045  1.00  0.00    +0.026 A 
ATOM     24  C   UNL     1      22.952   4.299  48.828  1.00  0.00    +0.026 A 
ATOM     25  C   UNL     1      21.935   4.208  46.238  1.00  0.00    +0.002 A 
ATOM     26  C   UNL     1      22.966   5.445  48.025  1.00  0.00    +0.002 A 
ATOM     27  C   UNL     1      22.453   5.401  46.732  1.00  0.00    +0.000 A 
ENDBRANCH  20  22
ENDBRANCH  11  20
TORSDOF 3
ENDMDL
MODEL 8
REMARK VINA RESULT:    -7.907      2.247      3.801
REMARK INTER + INTRA:         -10.156
REMARK INTER:                  -9.286
REMARK INTRA:                  -0.870
REMARK UNBOUND:                -0.862
REMARK SMILES Cc1cccc(C=C2C(=O)N(C)c3ncnc(Nc4ccccc4)c32)c1
REMARK SMILES IDX 7 1 8 2 9 3 10 4 11 5 12 6 13 7 14 8 15 9 16 10 17 11 25 12
REMARK SMILES IDX 6 13 2 14 3 15 26 16 4 17 5 18 1 19 18 20 19 22 20 23 24 24
REMARK SMILES IDX 21 25 23 26 22 27
REMARK H PARENT 18 21
ROOT
ATOM      1  C   UNL     1      24.608   2.758  51.932  1.00  0.00    +0.023 C 
ATOM      2  C   UNL     1      23.355   2.968  51.493  1.00  0.00    +0.055 C 
ATOM      3  C   UNL     1      22.259   1.935  51.363  1.00  0.00    +0.260 C 
ATOM      4  O   UNL     1      22.340   0.735  51.536  1.00  0.00    -0.269 OA
ATOM      5  N   UNL     1      21.135   2.662  51.004  1.00  0.00    -0.295 N 
ATOM      6  C   UNL     1      19.823   2.119  50.784  1.00  0.00    +0.155 C 
ATOM      7  C   UNL     1      21.419   4.024  50.875  1.00  0.00    +0.148 A 
ATOM      8  N   UNL     1      20.517   4.946  50.532  1.00  0.00    -0.218 NA
ATOM      9  C   UNL     1      21.024   6.179  50.451  1.00  0.00    +0.226 A 
ATOM     10  N   UNL     1      22.308   6.529  50.659  1.00  0.00    -0.218 NA
ATOM     11  C   UNL     1      23.191   5.561  50.988  1.00  0.00    +0.144 A 
ATOM     12  C   UNL     1      22.759   4.260  51.134  1.00  0.00    +0.073 A 
ENDROOT
BRANCH   1  13
ATOM     13  C   UNL     1      25.209   1.476  52.315  1.00  0.00    -0.025 A 
ATOM     14  C   UNL     1      25.373  -0.351  53.922  1.00  0.00    -0.051 A 
ATOM     15  C   UNL     1      26.398  -0.917  53.156  1.00  0.00    +0.003 A 
ATOM     16  C   UNL     1      24.796   0.856  53.502  1.00  0.00    +0.011 A 
ATOM     17  C   UNL     1      26.822  -0.301  51.978  1.00  0.00    +0.001 A 
ATOM     18  C   UNL     1      26.233   0.894  51.560  1.00  0.00    +0.008 A 
ATOM     19  C   UNL     1      24.932  -0.997  55.201  1.00  0.00    +0.044 C 
ENDBRANCH   1  13
BRANCH  11  20
ATOM     20  N   UNL     1      24.559   5.875  51.156  1.00  0.00    -0.340 N 
ATOM     21  H   UNL     1      24.918   5.376  51.964  1.00  0.00    +0.168 HD
BRANCH  20  22
ATOM     22  C   UNL     1      25.562   6.031  50.172  1.00  0.00    +0.040 A 
ATOM     23  C   UNL     1      26.153   4.884  49.619  1.00  0.00    +0.026 A 
ATOM     24  C   UNL     1      26.090   7.276  49.813  1.00  0.00    +0.026 A 
ATOM     25  C   UNL     1      27.195   4.982  48.689  1.00  0.00    +0.002 A 
ATOM     26  C   UNL     1      27.131   7.378  48.883  1.00  0.00    +0.002 A 
ATOM     27  C   UNL     1      27.680   6.231  48.317  1.00  0.00    +0.000 A 
ENDBRANCH  20  22
ENDBRANCH  11  20
TORSDOF 3
ENDMDL
MODEL 9
REMARK VINA RESULT:    -7.860      1.910      5.355
REMARK INTER + INTRA:         -10.101
REMARK INTER:                  -9.217
REMARK INTRA:                  -0.883
REMARK UNBOUND:                -0.862
REMARK SMILES Cc1cccc(C=C2C(=O)N(C)c3ncnc(Nc4ccccc4)c32)c1
REMARK SMILES IDX 7 1 8 2 9 3 10 4 11 5 12 6 13 7 14 8 15 9 16 10 17 11 25 12
REMARK SMILES IDX 6 13 2 14 3 15 26 16 4 17 5 18 1 19 18 20 19 22 20 23 24 24
REMARK SMILES IDX 21 25 23 26 22 27
REMARK H PARENT 18 21
ROOT
ATOM      1  C   UNL     1      24.217   2.429  51.056  1.00  0.00    +0.023 C 
ATOM      2  C   UNL     1      24.560   1.596  52.053  1.00  0.00    +0.055 C 
ATOM      3  C   UNL     1      25.869   1.581  52.808  1.00  0.00    +0.260 C 
ATOM      4  O   UNL     1      26.864   2.243  52.590  1.00  0.00    -0.269 OA
ATOM      5  N   UNL     1      25.683   0.645  53.812  1.00  0.00    -0.295 N 
ATOM      6  C   UNL     1      26.649   0.289  54.815  1.00  0.00    +0.155 C 
ATOM      7  C   UNL     1      24.414   0.062  53.748  1.00  0.00    +0.148 A 
ATOM      8  N   UNL     1      23.978  -0.875  54.593  1.00  0.00    -0.218 NA
ATOM      9  C   UNL     1      22.740  -1.297  54.322  1.00  0.00    +0.226 A 
ATOM     10  N   UNL     1      21.959  -0.882  53.306  1.00  0.00    -0.218 NA
ATOM     11  C   UNL     1      22.447   0.056  52.465  1.00  0.00    +0.144 A 
ATOM     12  C   UNL     1      23.701   0.584  52.681  1.00  0.00    +0.073 A 
ENDROOT
BRANCH   1  13
ATOM     13  C   UNL     1      25.058   3.459  50.435  1.00  0.00    -0.025 A 
ATOM     14  C   UNL     1      25.467   5.819  49.980  1.00  0.00    -0.051 A 
ATOM     15  C   UNL     1      26.559   5.464  49.181  1.00  0.00    +0.003 A 
ATOM     16  C   UNL     1      24.711   4.808  50.590  1.00  0.00    +0.011 A 
ATOM     17  C   UNL     1      26.904   4.123  49.013  1.00  0.00    +0.001 A 
ATOM     18  C   UNL     1      26.155   3.122  49.634  1.00  0.00    +0.008 A 
ATOM     19  C   UNL     1      25.078   7.258  50.143  1.00  0.00    +0.044 C 
ENDBRANCH   1  13
BRANCH  11  20
ATOM     20  N   UNL     1      21.684   0.476  51.351  1.00  0.00    -0.340 N 
ATOM     21  H   UNL     1      21.687  -0.258  50.650  1.00  0.00    +0.168 HD
BRANCH  20  22
ATOM     22  C   UNL     1      20.465   1.192  51.330  1.00  0.00    +0.040 A 
ATOM     23  C   UNL     1      20.478   2.562  51.633  1.00  0.00    +0.026 A 
ATOM     24  C   UNL     1      19.222   0.574  51.147  1.00  0.00    +0.026 A 
ATOM     25  C   UNL     1      19.291   3.303  51.689  1.00  0.00    +0.002 A 
ATOM     26  C   UNL     1      18.035   1.311  51.201  1.00  0.00    +0.002 A 
ATOM     27  C   UNL     1      18.069   2.677  51.467  1.00  0.00    +0.000 A 
ENDBRANCH  20  22
ENDBRANCH  11  20
TORSDOF 3
ENDMDL
