REMARK SMILES c1ccc(N2CCOCC2)cc1
REMARK SMILES IDX 1 1 2 2 3 3 4 4 11 5 12 6 5 7 6 8 10 9 7 10 9 11 8 12
REMARK H PARENT
ROOT
ATOM      1  C   UNL     1       3.682  -0.147   0.140  1.00  0.00    +0.000 A 
ATOM      2  C   UNL     1       2.886  -1.069   0.810  1.00  0.00    +0.002 A 
ATOM      3  C   UNL     1       1.494  -1.042   0.657  1.00  0.00    +0.026 A 
ATOM      4  C   UNL     1       0.863  -0.090  -0.158  1.00  0.00    +0.037 A 
ATOM      5  C   UNL     1       1.696   0.819  -0.835  1.00  0.00    +0.026 A 
ATOM      6  C   UNL     1       3.086   0.797  -0.688  1.00  0.00    +0.002 A 
ENDROOT
BRANCH   4   7
ATOM      7  N   UNL     1      -0.527  -0.029  -0.351  1.00  0.00    -0.367 N 
ATOM      8  C   UNL     1      -1.342  -1.180   0.093  1.00  0.00    +0.145 C 
ATOM      9  C   UNL     1      -1.130   1.262   0.064  1.00  0.00    +0.145 C 
ATOM     10  C   UNL     1      -2.790  -1.012  -0.395  1.00  0.00    +0.181 C 
ATOM     11  C   UNL     1      -2.594   1.332  -0.403  1.00  0.00    +0.181 C 
ATOM     12  O   UNL     1      -3.362   0.217   0.079  1.00  0.00    -0.378 OA
ENDBRANCH   4   7
TORSDOF 1
