MODEL 1
REMARK VINA RESULT:    -7.914      0.000      0.000
REMARK INTER + INTRA:         -10.841
REMARK INTER:                  -9.764
REMARK INTRA:                  -1.076
REMARK UNBOUND:                -1.076
REMARK SMILES Cc1cccc(N(C(=O)c2ccccn2)c2[nH]c(C)cc2C)c1
REMARK SMILES IDX 7 1 6 2 2 3 3 4 23 5 4 6 5 7 1 8 8 9 9 10 10 11 11 12 15 13
REMARK SMILES IDX 12 14 14 15 13 16 16 17 17 18 21 19 18 20 20 21 22 23 19 24
REMARK H PARENT 17 22
ROOT
ATOM      1  N   UNL     1      25.385   0.612  53.239  1.00  0.00    -0.261 N 
ENDROOT
BRANCH   1   2
ATOM      2  C   UNL     1      26.436  -0.364  53.085  1.00  0.00    +0.051 A 
ATOM      3  C   UNL     1      28.788  -1.006  53.360  1.00  0.00    -0.049 A 
ATOM      4  C   UNL     1      28.506  -2.272  52.840  1.00  0.00    +0.003 A 
ATOM      5  C   UNL     1      27.749  -0.068  53.484  1.00  0.00    +0.030 A 
ATOM      6  C   UNL     1      27.215  -2.582  52.420  1.00  0.00    +0.002 A 
ATOM      7  C   UNL     1      26.193  -1.635  52.536  1.00  0.00    +0.027 A 
ATOM      8  C   UNL     1      30.172  -0.660  53.825  1.00  0.00    +0.044 C 
ENDBRANCH   1   2
BRANCH   1   9
ATOM      9  C   UNL     1      25.665   1.996  53.179  1.00  0.00    +0.282 C 
ATOM     10  O   UNL     1      25.900   2.699  54.166  1.00  0.00    -0.266 OA
BRANCH   9  11
ATOM     11  C   UNL     1      25.572   2.694  51.855  1.00  0.00    +0.129 A 
ATOM     12  C   UNL     1      26.601   2.585  50.923  1.00  0.00    +0.034 A 
ATOM     13  N   UNL     1      24.406   3.349  51.602  1.00  0.00    -0.251 NA
ATOM     14  C   UNL     1      26.445   3.209  49.687  1.00  0.00    +0.004 A 
ATOM     15  C   UNL     1      24.286   3.935  50.392  1.00  0.00    +0.112 A 
ATOM     16  C   UNL     1      25.268   3.898  49.416  1.00  0.00    +0.020 A 
ENDBRANCH   9  11
ENDBRANCH   1   9
BRANCH   1  17
ATOM     17  C   UNL     1      24.067   0.145  53.350  1.00  0.00    +0.120 A 
ATOM     18  N   UNL     1      23.107   0.521  52.431  1.00  0.00    -0.345 N 
ATOM     19  C   UNL     1      23.453  -0.718  54.249  1.00  0.00    -0.008 A 
ATOM     20  C   UNL     1      21.923  -0.121  52.678  1.00  0.00    +0.014 A 
ATOM     21  C   UNL     1      22.108  -0.892  53.804  1.00  0.00    +0.028 A 
ATOM     22  H   UNL     1      23.279   1.154  51.661  1.00  0.00    +0.168 HD
ATOM     23  C   UNL     1      24.008  -1.326  55.490  1.00  0.00    +0.048 C 
ATOM     24  C   UNL     1      20.730   0.082  51.821  1.00  0.00    +0.064 C 
ENDBRANCH   1  17
TORSDOF 4
ENDMDL
MODEL 2
REMARK VINA RESULT:    -7.452      2.180      5.882
REMARK INTER + INTRA:         -10.271
REMARK INTER:                  -9.544
REMARK INTRA:                  -0.727
REMARK UNBOUND:                -1.076
REMARK SMILES Cc1cccc(N(C(=O)c2ccccn2)c2[nH]c(C)cc2C)c1
REMARK SMILES IDX 7 1 6 2 2 3 3 4 23 5 4 6 5 7 1 8 8 9 9 10 10 11 11 12 15 13
REMARK SMILES IDX 12 14 14 15 13 16 16 17 17 18 21 19 18 20 20 21 22 23 19 24
REMARK H PARENT 17 22
ROOT
ATOM      1  N   UNL     1      24.921   3.058  51.031  1.00  0.00    -0.261 N 
ENDROOT
BRANCH   1   2
ATOM      2  C   UNL     1      23.797   2.162  51.157  1.00  0.00    +0.051 A 
ATOM      3  C   UNL     1      22.442   0.643  52.525  1.00  0.00    -0.049 A 
ATOM      4  C   UNL     1      21.576   0.440  51.448  1.00  0.00    +0.003 A 
ATOM      5  C   UNL     1      23.539   1.507  52.372  1.00  0.00    +0.030 A 
ATOM      6  C   UNL     1      21.822   1.065  50.228  1.00  0.00    +0.002 A 
ATOM      7  C   UNL     1      22.925   1.912  50.083  1.00  0.00    +0.027 A 
ATOM      8  C   UNL     1      22.184  -0.015  53.848  1.00  0.00    +0.044 C 
ENDBRANCH   1   2
BRANCH   1   9
ATOM      9  C   UNL     1      26.218   2.561  50.765  1.00  0.00    +0.282 C 
ATOM     10  O   UNL     1      26.808   2.706  49.691  1.00  0.00    -0.266 OA
BRANCH   9  11
ATOM     11  C   UNL     1      26.891   1.711  51.801  1.00  0.00    +0.129 A 
ATOM     12  C   UNL     1      26.667   0.337  51.844  1.00  0.00    +0.034 A 
ATOM     13  N   UNL     1      27.778   2.345  52.615  1.00  0.00    -0.251 NA
ATOM     14  C   UNL     1      27.355  -0.418  52.791  1.00  0.00    +0.004 A 
ATOM     15  C   UNL     1      28.433   1.583  53.516  1.00  0.00    +0.112 A 
ATOM     16  C   UNL     1      28.253   0.215  53.645  1.00  0.00    +0.020 A 
ENDBRANCH   9  11
ENDBRANCH   1   9
BRANCH   1  17
ATOM     17  C   UNL     1      24.671   4.437  51.081  1.00  0.00    +0.120 A 
ATOM     18  N   UNL     1      25.539   5.332  50.487  1.00  0.00    -0.345 N 
ATOM     19  C   UNL     1      23.629   5.179  51.623  1.00  0.00    -0.008 A 
ATOM     20  C   UNL     1      25.054   6.610  50.579  1.00  0.00    +0.014 A 
ATOM     21  C   UNL     1      23.873   6.544  51.284  1.00  0.00    +0.028 A 
ATOM     22  H   UNL     1      26.393   5.064  50.017  1.00  0.00    +0.168 HD
ATOM     23  C   UNL     1      22.488   4.717  52.461  1.00  0.00    +0.048 C 
ATOM     24  C   UNL     1      25.779   7.764  49.997  1.00  0.00    +0.064 C 
ENDBRANCH   1  17
TORSDOF 4
ENDMDL
MODEL 3
REMARK VINA RESULT:    -7.409      1.454      2.494
REMARK INTER + INTRA:         -10.218
REMARK INTER:                  -9.554
REMARK INTRA:                  -0.664
REMARK UNBOUND:                -1.076
REMARK SMILES Cc1cccc(N(C(=O)c2ccccn2)c2[nH]c(C)cc2C)c1
REMARK SMILES IDX 7 1 6 2 2 3 3 4 23 5 4 6 5 7 1 8 8 9 9 10 10 11 11 12 15 13
REMARK SMILES IDX 12 14 14 15 13 16 16 17 17 18 21 19 18 20 20 21 22 23 19 24
REMARK H PARENT 17 22
ROOT
ATOM      1  N   UNL     1      24.416   1.711  52.839  1.00  0.00    -0.261 N 
ENDROOT
BRANCH   1   2
ATOM      2  C   UNL     1      25.632   1.004  53.156  1.00  0.00    +0.051 A 
ATOM      3  C   UNL     1      27.028  -1.004  52.965  1.00  0.00    -0.049 A 
ATOM      4  C   UNL     1      28.027  -0.386  53.723  1.00  0.00    +0.003 A 
ATOM      5  C   UNL     1      25.845  -0.300  52.684  1.00  0.00    +0.030 A 
ATOM      6  C   UNL     1      27.830   0.901  54.218  1.00  0.00    +0.002 A 
ATOM      7  C   UNL     1      26.643   1.586  53.943  1.00  0.00    +0.027 A 
ATOM      8  C   UNL     1      27.229  -2.385  52.417  1.00  0.00    +0.044 C 
ENDBRANCH   1   2
BRANCH   1   9
ATOM      9  C   UNL     1      24.424   3.107  52.619  1.00  0.00    +0.282 C 
ATOM     10  O   UNL     1      23.829   3.924  53.327  1.00  0.00    -0.266 OA
BRANCH   9  11
ATOM     11  C   UNL     1      25.105   3.640  51.392  1.00  0.00    +0.129 A 
ATOM     12  C   UNL     1      26.025   2.858  50.697  1.00  0.00    +0.034 A 
ATOM     13  N   UNL     1      24.706   4.871  50.971  1.00  0.00    -0.251 NA
ATOM     14  C   UNL     1      26.591   3.377  49.536  1.00  0.00    +0.004 A 
ATOM     15  C   UNL     1      25.270   5.339  49.838  1.00  0.00    +0.112 A 
ATOM     16  C   UNL     1      26.210   4.641  49.098  1.00  0.00    +0.020 A 
ENDBRANCH   9  11
ENDBRANCH   1   9
BRANCH   1  17
ATOM     17  C   UNL     1      23.247   0.958  52.658  1.00  0.00    +0.120 A 
ATOM     18  N   UNL     1      22.782   0.126  53.657  1.00  0.00    -0.345 N 
ATOM     19  C   UNL     1      22.344   0.871  51.605  1.00  0.00    -0.008 A 
ATOM     20  C   UNL     1      21.585  -0.436  53.301  1.00  0.00    +0.014 A 
ATOM     21  C   UNL     1      21.294   0.004  52.030  1.00  0.00    +0.028 A 
ATOM     22  H   UNL     1      23.250  -0.008  54.543  1.00  0.00    +0.168 HD
ATOM     23  C   UNL     1      22.428   1.480  50.248  1.00  0.00    +0.048 C 
ATOM     24  C   UNL     1      20.852  -1.352  54.208  1.00  0.00    +0.064 C 
ENDBRANCH   1  17
TORSDOF 4
ENDMDL
MODEL 4
REMARK VINA RESULT:    -7.370      1.878      6.312
REMARK INTER + INTRA:         -10.170
REMARK INTER:                  -9.051
REMARK INTRA:                  -1.119
REMARK UNBOUND:                -1.076
REMARK SMILES Cc1cccc(N(C(=O)c2ccccn2)c2[nH]c(C)cc2C)c1
REMARK SMILES IDX 7 1 6 2 2 3 3 4 23 5 4 6 5 7 1 8 8 9 9 10 10 11 11 12 15 13
REMARK SMILES IDX 12 14 14 15 13 16 16 17 17 18 21 19 18 20 20 21 22 23 19 24
REMARK H PARENT 17 22
ROOT
ATOM      1  N   UNL     1      24.003   3.100  51.477  1.00  0.00    -0.261 N 
ENDROOT
BRANCH   1   2
ATOM      2  C   UNL     1      22.977   2.353  50.792  1.00  0.00    +0.051 A 
ATOM      3  C   UNL     1      20.981   0.928  50.872  1.00  0.00    -0.049 A 
ATOM      4  C   UNL     1      20.926   0.921  49.476  1.00  0.00    +0.003 A 
ATOM      5  C   UNL     1      22.001   1.650  51.515  1.00  0.00    +0.030 A 
ATOM      6  C   UNL     1      21.894   1.597  48.737  1.00  0.00    +0.002 A 
ATOM      7  C   UNL     1      22.912   2.299  49.388  1.00  0.00    +0.027 A 
ATOM      8  C   UNL     1      19.941   0.214  51.682  1.00  0.00    +0.044 C 
ENDBRANCH   1   2
BRANCH   1   9
ATOM      9  C   UNL     1      24.559   2.626  52.687  1.00  0.00    +0.282 C 
ATOM     10  O   UNL     1      24.635   3.293  53.723  1.00  0.00    -0.266 OA
BRANCH   9  11
ATOM     11  C   UNL     1      25.198   1.268  52.705  1.00  0.00    +0.129 A 
ATOM     12  C   UNL     1      26.334   1.011  51.941  1.00  0.00    +0.034 A 
ATOM     13  N   UNL     1      24.657   0.361  53.563  1.00  0.00    -0.251 NA
ATOM     14  C   UNL     1      26.921  -0.249  52.031  1.00  0.00    +0.004 A 
ATOM     15  C   UNL     1      25.255  -0.847  53.629  1.00  0.00    +0.112 A 
ATOM     16  C   UNL     1      26.372  -1.197  52.888  1.00  0.00    +0.020 A 
ENDBRANCH   9  11
ENDBRANCH   1   9
BRANCH   1  17
ATOM     17  C   UNL     1      24.501   4.254  50.856  1.00  0.00    +0.120 A 
ATOM     18  N   UNL     1      23.890   5.478  51.049  1.00  0.00    -0.345 N 
ATOM     19  C   UNL     1      25.597   4.473  50.031  1.00  0.00    -0.008 A 
ATOM     20  C   UNL     1      24.594   6.474  50.426  1.00  0.00    +0.014 A 
ATOM     21  C   UNL     1      25.655   5.877  49.782  1.00  0.00    +0.028 A 
ATOM     22  H   UNL     1      23.059   5.611  51.609  1.00  0.00    +0.168 HD
ATOM     23  C   UNL     1      26.530   3.479  49.430  1.00  0.00    +0.048 C 
ATOM     24  C   UNL     1      24.170   7.892  50.497  1.00  0.00    +0.064 C 
ENDBRANCH   1  17
TORSDOF 4
ENDMDL
MODEL 5
REMARK VINA RESULT:    -7.333      1.189      5.018
REMARK INTER + INTRA:         -10.124
REMARK INTER:                  -9.814
REMARK INTRA:                  -0.310
REMARK UNBOUND:                -1.076
REMARK SMILES Cc1cccc(N(C(=O)c2ccccn2)c2[nH]c(C)cc2C)c1
REMARK SMILES IDX 7 1 6 2 2 3 3 4 23 5 4 6 5 7 1 8 8 9 9 10 10 11 11 12 15 13
REMARK SMILES IDX 12 14 14 15 13 16 16 17 17 18 21 19 18 20 20 21 22 23 19 24
REMARK H PARENT 17 22
ROOT
ATOM      1  N   UNL     1      25.242   1.388  52.662  1.00  0.00    -0.261 N 
ENDROOT
BRANCH   1   2
ATOM      2  C   UNL     1      25.420   2.400  51.651  1.00  0.00    +0.051 A 
ATOM      3  C   UNL     1      24.843   4.599  50.729  1.00  0.00    -0.049 A 
ATOM      4  C   UNL     1      25.782   4.422  49.710  1.00  0.00    +0.003 A 
ATOM      5  C   UNL     1      24.677   3.590  51.692  1.00  0.00    +0.030 A 
ATOM      6  C   UNL     1      26.519   3.243  49.638  1.00  0.00    +0.002 A 
ATOM      7  C   UNL     1      26.335   2.240  50.594  1.00  0.00    +0.027 A 
ATOM      8  C   UNL     1      24.049   5.868  50.826  1.00  0.00    +0.044 C 
ENDBRANCH   1   2
BRANCH   1   9
ATOM      9  C   UNL     1      26.245   1.143  53.628  1.00  0.00    +0.282 C 
ATOM     10  O   UNL     1      26.428   1.840  54.629  1.00  0.00    -0.266 OA
BRANCH   9  11
ATOM     11  C   UNL     1      27.227   0.035  53.383  1.00  0.00    +0.129 A 
ATOM     12  C   UNL     1      28.575   0.202  53.694  1.00  0.00    +0.034 A 
ATOM     13  N   UNL     1      26.708  -1.139  52.933  1.00  0.00    -0.251 NA
ATOM     14  C   UNL     1      29.438  -0.873  53.497  1.00  0.00    +0.004 A 
ATOM     15  C   UNL     1      27.572  -2.162  52.760  1.00  0.00    +0.112 A 
ATOM     16  C   UNL     1      28.930  -2.076  53.020  1.00  0.00    +0.020 A 
ENDBRANCH   9  11
ENDBRANCH   1   9
BRANCH   1  17
ATOM     17  C   UNL     1      24.008   0.725  52.719  1.00  0.00    +0.120 A 
ATOM     18  N   UNL     1      23.721  -0.146  53.752  1.00  0.00    -0.345 N 
ATOM     19  C   UNL     1      22.883   0.773  51.904  1.00  0.00    -0.008 A 
ATOM     20  C   UNL     1      22.434  -0.604  53.656  1.00  0.00    +0.014 A 
ATOM     21  C   UNL     1      21.894  -0.055  52.515  1.00  0.00    +0.028 A 
ATOM     22  H   UNL     1      24.370  -0.374  54.494  1.00  0.00    +0.168 HD
ATOM     23  C   UNL     1      22.699   1.472  50.602  1.00  0.00    +0.048 C 
ATOM     24  C   UNL     1      21.860  -1.535  54.656  1.00  0.00    +0.064 C 
ENDBRANCH   1  17
TORSDOF 4
ENDMDL
MODEL 6
REMARK VINA RESULT:    -7.243      1.877      5.512
REMARK INTER + INTRA:         -10.013
REMARK INTER:                  -9.305
REMARK INTRA:                  -0.709
REMARK UNBOUND:                -1.076
REMARK SMILES Cc1cccc(N(C(=O)c2ccccn2)c2[nH]c(C)cc2C)c1
REMARK SMILES IDX 7 1 6 2 2 3 3 4 23 5 4 6 5 7 1 8 8 9 9 10 10 11 11 12 15 13
REMARK SMILES IDX 12 14 14 15 13 16 16 17 17 18 21 19 18 20 20 21 22 23 19 24
REMARK H PARENT 17 22
ROOT
ATOM      1  N   UNL     1      23.198   1.896  52.569  1.00  0.00    -0.261 N 
ENDROOT
BRANCH   1   2
ATOM      2  C   UNL     1      22.370   0.835  53.088  1.00  0.00    +0.051 A 
ATOM      3  C   UNL     1      20.205  -0.316  53.172  1.00  0.00    -0.049 A 
ATOM      4  C   UNL     1      20.738  -1.262  54.051  1.00  0.00    +0.003 A 
ATOM      5  C   UNL     1      21.028   0.718  52.693  1.00  0.00    +0.030 A 
ATOM      6  C   UNL     1      22.062  -1.155  54.471  1.00  0.00    +0.002 A 
ATOM      7  C   UNL     1      22.867  -0.114  53.999  1.00  0.00    +0.027 A 
ATOM      8  C   UNL     1      18.784  -0.423  52.703  1.00  0.00    +0.044 C 
ENDBRANCH   1   2
BRANCH   1   9
ATOM      9  C   UNL     1      24.397   2.264  53.219  1.00  0.00    +0.282 C 
ATOM     10  O   UNL     1      24.606   3.377  53.711  1.00  0.00    -0.266 OA
BRANCH   9  11
ATOM     11  C   UNL     1      25.540   1.292  53.229  1.00  0.00    +0.129 A 
ATOM     12  C   UNL     1      25.853   0.556  52.088  1.00  0.00    +0.034 A 
ATOM     13  N   UNL     1      26.281   1.247  54.369  1.00  0.00    -0.251 NA
ATOM     14  C   UNL     1      26.955  -0.295  52.130  1.00  0.00    +0.004 A 
ATOM     15  C   UNL     1      27.346   0.417  54.373  1.00  0.00    +0.112 A 
ATOM     16  C   UNL     1      27.714  -0.368  53.293  1.00  0.00    +0.020 A 
ENDBRANCH   9  11
ENDBRANCH   1   9
BRANCH   1  17
ATOM     17  C   UNL     1      22.828   2.481  51.349  1.00  0.00    +0.120 A 
ATOM     18  N   UNL     1      22.986   1.794  50.161  1.00  0.00    -0.345 N 
ATOM     19  C   UNL     1      22.255   3.708  51.036  1.00  0.00    -0.008 A 
ATOM     20  C   UNL     1      22.477   2.515  49.114  1.00  0.00    +0.014 A 
ATOM     21  C   UNL     1      22.023   3.709  49.628  1.00  0.00    +0.028 A 
ATOM     22  H   UNL     1      23.387   0.868  50.093  1.00  0.00    +0.168 HD
ATOM     23  C   UNL     1      21.974   4.865  51.930  1.00  0.00    +0.048 C 
ATOM     24  C   UNL     1      22.494   1.995  47.726  1.00  0.00    +0.064 C 
ENDBRANCH   1  17
TORSDOF 4
ENDMDL
MODEL 7
REMARK VINA RESULT:    -7.136      2.799      6.185
REMARK INTER + INTRA:          -9.881
REMARK INTER:                  -8.917
REMARK INTRA:                  -0.964
REMARK UNBOUND:                -1.076
REMARK SMILES Cc1cccc(N(C(=O)c2ccccn2)c2[nH]c(C)cc2C)c1
REMARK SMILES IDX 7 1 6 2 2 3 3 4 23 5 4 6 5 7 1 8 8 9 9 10 10 11 11 12 15 13
REMARK SMILES IDX 12 14 14 15 13 16 16 17 17 18 21 19 18 20 20 21 22 23 19 24
REMARK H PARENT 17 22
ROOT
ATOM      1  N   UNL     1      21.445   1.880  51.840  1.00  0.00    -0.261 N 
ENDROOT
BRANCH   1   2
ATOM      2  C   UNL     1      22.004   0.923  52.764  1.00  0.00    +0.051 A 
ATOM      3  C   UNL     1      23.925  -0.373  53.568  1.00  0.00    -0.049 A 
ATOM      4  C   UNL     1      23.138  -0.913  54.588  1.00  0.00    +0.003 A 
ATOM      5  C   UNL     1      23.352   0.544  52.671  1.00  0.00    +0.030 A 
ATOM      6  C   UNL     1      21.793  -0.566  54.689  1.00  0.00    +0.002 A 
ATOM      7  C   UNL     1      21.231   0.338  53.782  1.00  0.00    +0.027 A 
ATOM      8  C   UNL     1      25.378  -0.729  53.452  1.00  0.00    +0.044 C 
ENDBRANCH   1   2
BRANCH   1   9
ATOM      9  C   UNL     1      20.115   2.337  51.986  1.00  0.00    +0.282 C 
ATOM     10  O   UNL     1      19.760   3.189  52.804  1.00  0.00    -0.266 OA
BRANCH   9  11
ATOM     11  C   UNL     1      19.034   1.679  51.178  1.00  0.00    +0.129 A 
ATOM     12  C   UNL     1      18.606   0.390  51.486  1.00  0.00    +0.034 A 
ATOM     13  N   UNL     1      18.459   2.443  50.210  1.00  0.00    -0.251 NA
ATOM     14  C   UNL     1      17.565  -0.158  50.741  1.00  0.00    +0.004 A 
ATOM     15  C   UNL     1      17.448   1.883  49.512  1.00  0.00    +0.112 A 
ATOM     16  C   UNL     1      16.976   0.600  49.734  1.00  0.00    +0.020 A 
ENDBRANCH   9  11
ENDBRANCH   1   9
BRANCH   1  17
ATOM     17  C   UNL     1      22.290   2.417  50.858  1.00  0.00    +0.120 A 
ATOM     18  N   UNL     1      23.199   3.407  51.174  1.00  0.00    -0.345 N 
ATOM     19  C   UNL     1      22.456   2.129  49.509  1.00  0.00    -0.008 A 
ATOM     20  C   UNL     1      23.978   3.714  50.091  1.00  0.00    +0.014 A 
ATOM     21  C   UNL     1      23.533   2.940  49.042  1.00  0.00    +0.028 A 
ATOM     22  H   UNL     1      23.294   3.813  52.096  1.00  0.00    +0.168 HD
ATOM     23  C   UNL     1      21.659   1.218  48.641  1.00  0.00    +0.048 C 
ATOM     24  C   UNL     1      25.055   4.729  50.165  1.00  0.00    +0.064 C 
ENDBRANCH   1  17
TORSDOF 4
ENDMDL
MODEL 8
REMARK VINA RESULT:    -7.008      2.360      5.290
REMARK INTER + INTRA:          -9.723
REMARK INTER:                  -8.523
REMARK INTRA:                  -1.200
REMARK UNBOUND:                -1.076
REMARK SMILES Cc1cccc(N(C(=O)c2ccccn2)c2[nH]c(C)cc2C)c1
REMARK SMILES IDX 7 1 6 2 2 3 3 4 23 5 4 6 5 7 1 8 8 9 9 10 10 11 11 12 15 13
REMARK SMILES IDX 12 14 14 15 13 16 16 17 17 18 21 19 18 20 20 21 22 23 19 24
REMARK H PARENT 17 22
ROOT
ATOM      1  N   UNL     1      23.202   2.323  51.820  1.00  0.00    -0.261 N 
ENDROOT
BRANCH   1   2
ATOM      2  C   UNL     1      22.222   2.347  50.761  1.00  0.00    +0.051 A 
ATOM      3  C   UNL     1      20.254   3.376  49.719  1.00  0.00    -0.049 A 
ATOM      4  C   UNL     1      20.318   2.448  48.676  1.00  0.00    +0.003 A 
ATOM      5  C   UNL     1      21.211   3.321  50.747  1.00  0.00    +0.030 A 
ATOM      6  C   UNL     1      21.301   1.462  48.679  1.00  0.00    +0.002 A 
ATOM      7  C   UNL     1      22.239   1.409  49.714  1.00  0.00    +0.027 A 
ATOM      8  C   UNL     1      19.207   4.450  49.725  1.00  0.00    +0.044 C 
ENDBRANCH   1   2
BRANCH   1   9
ATOM      9  C   UNL     1      23.979   3.467  52.115  1.00  0.00    +0.282 C 
ATOM     10  O   UNL     1      23.896   4.107  53.167  1.00  0.00    -0.266 OA
BRANCH   9  11
ATOM     11  C   UNL     1      24.888   4.015  51.055  1.00  0.00    +0.129 A 
ATOM     12  C   UNL     1      25.849   3.203  50.458  1.00  0.00    +0.034 A 
ATOM     13  N   UNL     1      24.655   5.299  50.669  1.00  0.00    -0.251 NA
ATOM     14  C   UNL     1      26.635   3.742  49.443  1.00  0.00    +0.004 A 
ATOM     15  C   UNL     1      25.430   5.787  49.677  1.00  0.00    +0.112 A 
ATOM     16  C   UNL     1      26.424   5.059  49.045  1.00  0.00    +0.020 A 
ENDBRANCH   9  11
ENDBRANCH   1   9
BRANCH   1  17
ATOM     17  C   UNL     1      23.290   1.167  52.608  1.00  0.00    +0.120 A 
ATOM     18  N   UNL     1      22.184   0.687  53.282  1.00  0.00    -0.345 N 
ATOM     19  C   UNL     1      24.336   0.289  52.868  1.00  0.00    -0.008 A 
ATOM     20  C   UNL     1      22.474  -0.495  53.909  1.00  0.00    +0.014 A 
ATOM     21  C   UNL     1      23.804  -0.762  53.673  1.00  0.00    +0.028 A 
ATOM     22  H   UNL     1      21.278   1.137  53.272  1.00  0.00    +0.168 HD
ATOM     23  C   UNL     1      25.768   0.398  52.474  1.00  0.00    +0.048 C 
ATOM     24  C   UNL     1      21.453  -1.240  54.684  1.00  0.00    +0.064 C 
ENDBRANCH   1  17
TORSDOF 4
ENDMDL
MODEL 9
REMARK VINA RESULT:    -6.887      2.820      4.930
REMARK INTER + INTRA:          -9.573
REMARK INTER:                  -8.269
REMARK INTRA:                  -1.305
REMARK UNBOUND:                -1.076
REMARK SMILES Cc1cccc(N(C(=O)c2ccccn2)c2[nH]c(C)cc2C)c1
REMARK SMILES IDX 7 1 6 2 2 3 3 4 23 5 4 6 5 7 1 8 8 9 9 10 10 11 11 12 15 13
REMARK SMILES IDX 12 14 14 15 13 16 16 17 17 18 21 19 18 20 20 21 22 23 19 24
REMARK H PARENT 17 22
ROOT
ATOM      1  N   UNL     1      22.681   2.987  51.929  1.00  0.00    -0.261 N 
ENDROOT
BRANCH   1   2
ATOM      2  C   UNL     1      22.758   1.697  52.570  1.00  0.00    +0.051 A 
ATOM      3  C   UNL     1      21.636  -0.266  53.521  1.00  0.00    -0.049 A 
ATOM      4  C   UNL     1      22.877  -0.852  53.783  1.00  0.00    +0.003 A 
ATOM      5  C   UNL     1      21.589   0.999  52.911  1.00  0.00    +0.030 A 
ATOM      6  C   UNL     1      24.050  -0.170  53.470  1.00  0.00    +0.002 A 
ATOM      7  C   UNL     1      23.991   1.094  52.876  1.00  0.00    +0.027 A 
ATOM      8  C   UNL     1      20.364  -0.993  53.842  1.00  0.00    +0.044 C 
ENDBRANCH   1   2
BRANCH   1   9
ATOM      9  C   UNL     1      23.663   3.976  52.169  1.00  0.00    +0.282 C 
ATOM     10  O   UNL     1      23.702   4.682  53.180  1.00  0.00    -0.266 OA
BRANCH   9  11
ATOM     11  C   UNL     1      24.665   4.274  51.093  1.00  0.00    +0.129 A 
ATOM     12  C   UNL     1      25.491   3.268  50.596  1.00  0.00    +0.034 A 
ATOM     13  N   UNL     1      24.648   5.538  50.590  1.00  0.00    -0.251 NA
ATOM     14  C   UNL     1      26.368   3.582  49.561  1.00  0.00    +0.004 A 
ATOM     15  C   UNL     1      25.506   5.805  49.583  1.00  0.00    +0.112 A 
ATOM     16  C   UNL     1      26.379   4.874  49.046  1.00  0.00    +0.020 A 
ENDBRANCH   9  11
ENDBRANCH   1   9
BRANCH   1  17
ATOM     17  C   UNL     1      21.663   3.194  50.988  1.00  0.00    +0.120 A 
ATOM     18  N   UNL     1      20.528   3.907  51.322  1.00  0.00    -0.345 N 
ATOM     19  C   UNL     1      21.536   2.832  49.652  1.00  0.00    -0.008 A 
ATOM     20  C   UNL     1      19.716   4.063  50.230  1.00  0.00    +0.014 A 
ATOM     21  C   UNL     1      20.314   3.400  49.183  1.00  0.00    +0.028 A 
ATOM     22  H   UNL     1      20.353   4.292  52.241  1.00  0.00    +0.168 HD
ATOM     23  C   UNL     1      22.425   1.965  48.829  1.00  0.00    +0.048 C 
ATOM     24  C   UNL     1      18.441   4.816  50.306  1.00  0.00    +0.064 C 
ENDBRANCH   1  17
TORSDOF 4
ENDMDL
