REMARK SMILES Cc1cccc(C=C2C(=O)N(C)c3ncnc(-c4ccccc4)c32)c1
REMARK SMILES IDX 7 1 8 2 9 3 10 4 11 5 12 6 13 7 14 8 15 9 16 10 17 11 24 12
REMARK SMILES IDX 6 13 2 14 3 15 25 16 4 17 5 18 1 19 18 20 19 21 23 22 20 23
REMARK SMILES IDX 22 24 21 25
REMARK H PARENT
ROOT
ATOM      1  C   UNL     1       0.478  -0.266   0.269  1.00  0.00    +0.022 C 
ATOM      2  C   UNL     1      -0.224   0.876   0.190  1.00  0.00    +0.054 C 
ATOM      3  C   UNL     1       0.337   2.269   0.025  1.00  0.00    +0.260 C 
ATOM      4  O   UNL     1       1.499   2.594  -0.127  1.00  0.00    -0.269 OA
ATOM      5  N   UNL     1      -0.768   3.102   0.089  1.00  0.00    -0.295 N 
ATOM      6  C   UNL     1      -0.743   4.535  -0.005  1.00  0.00    +0.155 C 
ATOM      7  C   UNL     1      -1.952   2.379   0.264  1.00  0.00    +0.147 A 
ATOM      8  N   UNL     1      -3.162   2.941   0.360  1.00  0.00    -0.218 NA
ATOM      9  C   UNL     1      -4.154   2.059   0.519  1.00  0.00    +0.224 A 
ATOM     10  N   UNL     1      -4.026   0.720   0.572  1.00  0.00    -0.236 NA
ATOM     11  C   UNL     1      -2.776   0.205   0.454  1.00  0.00    +0.084 A 
ATOM     12  C   UNL     1      -1.680   1.022   0.314  1.00  0.00    +0.057 A 
ENDROOT
BRANCH   1  13
ATOM     13  C   UNL     1       1.934  -0.418   0.160  1.00  0.00    -0.025 A 
ATOM     14  C   UNL     1       4.000  -0.305  -1.126  1.00  0.00    -0.051 A 
ATOM     15  C   UNL     1       4.700  -0.816  -0.028  1.00  0.00    +0.003 A 
ATOM     16  C   UNL     1       2.616  -0.104  -1.022  1.00  0.00    +0.011 A 
ATOM     17  C   UNL     1       4.024  -1.144   1.148  1.00  0.00    +0.001 A 
ATOM     18  C   UNL     1       2.645  -0.952   1.239  1.00  0.00    +0.008 A 
ATOM     19  C   UNL     1       4.728   0.089  -2.377  1.00  0.00    +0.044 C 
ENDBRANCH   1  13
BRANCH  11  20
ATOM     20  C   UNL     1      -2.724  -1.258   0.475  1.00  0.00    +0.001 A 
ATOM     21  C   UNL     1      -2.484  -1.990  -0.700  1.00  0.00    +0.010 A 
ATOM     22  C   UNL     1      -2.931  -1.963   1.671  1.00  0.00    +0.010 A 
ATOM     23  C   UNL     1      -2.425  -3.386  -0.672  1.00  0.00    +0.001 A 
ATOM     24  C   UNL     1      -2.874  -3.358   1.698  1.00  0.00    +0.001 A 
ATOM     25  C   UNL     1      -2.617  -4.068   0.527  1.00  0.00    +0.000 A 
ENDBRANCH  11  20
TORSDOF 2
