MODEL 1
REMARK VINA RESULT:    -9.570      0.000      0.000
REMARK INTER + INTRA:         -11.852
REMARK INTER:                 -11.248
REMARK INTRA:                  -0.604
REMARK UNBOUND:                -0.604
REMARK SMILES Cc1cccc(C=C2C(=O)N(C)c3ncnc(-c4ccc(N5CCOCC5)[nH]4)c32)c1
REMARK SMILES IDX 7 1 8 2 9 3 10 4 11 5 12 6 13 7 14 8 15 9 16 10 17 11 29 12
REMARK SMILES IDX 6 13 2 14 3 15 30 16 4 17 5 18 1 19 18 20 19 21 28 22 20 23
REMARK SMILES IDX 21 24 22 26 23 27 27 28 24 29 26 30 25 31
REMARK H PARENT 28 25
ROOT
ATOM      1  C   UNL     1      25.657   1.223  52.785  1.00  0.00    +0.022 C 
ATOM      2  C   UNL     1      24.466   0.686  53.099  1.00  0.00    +0.054 C 
ATOM      3  C   UNL     1      24.233  -0.476  54.035  1.00  0.00    +0.260 C 
ATOM      4  O   UNL     1      25.059  -1.219  54.529  1.00  0.00    -0.269 OA
ATOM      5  N   UNL     1      22.860  -0.503  54.219  1.00  0.00    -0.295 N 
ATOM      6  C   UNL     1      22.147  -1.430  55.054  1.00  0.00    +0.155 C 
ATOM      7  C   UNL     1      22.218   0.482  53.463  1.00  0.00    +0.147 A 
ATOM      8  N   UNL     1      20.892   0.667  53.461  1.00  0.00    -0.218 NA
ATOM      9  C   UNL     1      20.485   1.650  52.652  1.00  0.00    +0.225 A 
ATOM     10  N   UNL     1      21.272   2.404  51.863  1.00  0.00    -0.234 NA
ATOM     11  C   UNL     1      22.603   2.138  51.882  1.00  0.00    +0.100 A 
ATOM     12  C   UNL     1      23.143   1.200  52.724  1.00  0.00    +0.058 A 
ENDROOT
BRANCH   1  13
ATOM     13  C   UNL     1      26.983   0.744  53.190  1.00  0.00    -0.025 A 
ATOM     14  C   UNL     1      28.689  -0.994  53.278  1.00  0.00    -0.051 A 
ATOM     15  C   UNL     1      29.562  -0.091  53.894  1.00  0.00    +0.003 A 
ATOM     16  C   UNL     1      27.397  -0.568  52.933  1.00  0.00    +0.011 A 
ATOM     17  C   UNL     1      29.162   1.223  54.139  1.00  0.00    +0.001 A 
ATOM     18  C   UNL     1      27.879   1.640  53.783  1.00  0.00    +0.008 A 
ATOM     19  C   UNL     1      29.101  -2.418  53.049  1.00  0.00    +0.044 C 
ENDBRANCH   1  13
BRANCH  11  20
ATOM     20  C   UNL     1      23.334   2.917  50.893  1.00  0.00    +0.067 A 
ATOM     21  C   UNL     1      23.517   2.755  49.532  1.00  0.00    +0.032 A 
ATOM     22  N   UNL     1      23.946   4.107  51.224  1.00  0.00    -0.340 N 
ATOM     23  C   UNL     1      24.318   3.829  49.068  1.00  0.00    +0.047 A 
ATOM     24  C   UNL     1      24.552   4.676  50.132  1.00  0.00    +0.106 A 
ATOM     25  H   UNL     1      23.964   4.485  52.159  1.00  0.00    +0.168 HD
BRANCH  24  26
ATOM     26  N   UNL     1      25.254   5.841  50.249  1.00  0.00    -0.354 N 
ATOM     27  C   UNL     1      24.643   6.998  50.949  1.00  0.00    +0.146 C 
ATOM     28  C   UNL     1      26.084   6.300  49.112  1.00  0.00    +0.146 C 
ATOM     29  C   UNL     1      23.858   7.865  49.950  1.00  0.00    +0.181 C 
ATOM     30  C   UNL     1      25.260   7.195  48.171  1.00  0.00    +0.181 C 
ATOM     31  O   UNL     1      24.699   8.319  48.874  1.00  0.00    -0.378 OA
ENDBRANCH  24  26
ENDBRANCH  11  20
TORSDOF 3
ENDMDL
MODEL 2
REMARK VINA RESULT:    -9.251      1.756      2.694
REMARK INTER + INTRA:         -11.477
REMARK INTER:                 -10.952
REMARK INTRA:                  -0.526
REMARK UNBOUND:                -0.604
REMARK SMILES Cc1cccc(C=C2C(=O)N(C)c3ncnc(-c4ccc(N5CCOCC5)[nH]4)c32)c1
REMARK SMILES IDX 7 1 8 2 9 3 10 4 11 5 12 6 13 7 14 8 15 9 16 10 17 11 29 12
REMARK SMILES IDX 6 13 2 14 3 15 30 16 4 17 5 18 1 19 18 20 19 21 28 22 20 23
REMARK SMILES IDX 21 24 22 26 23 27 27 28 24 29 26 30 25 31
REMARK H PARENT 28 25
ROOT
ATOM      1  C   UNL     1      26.394   2.033  52.214  1.00  0.00    +0.022 C 
ATOM      2  C   UNL     1      25.053   1.961  52.187  1.00  0.00    +0.054 C 
ATOM      3  C   UNL     1      24.200   0.974  52.949  1.00  0.00    +0.260 C 
ATOM      4  O   UNL     1      24.561  -0.006  53.572  1.00  0.00    -0.269 OA
ATOM      5  N   UNL     1      22.905   1.441  52.792  1.00  0.00    -0.295 N 
ATOM      6  C   UNL     1      21.727   0.843  53.357  1.00  0.00    +0.155 C 
ATOM      7  C   UNL     1      22.861   2.577  51.978  1.00  0.00    +0.147 A 
ATOM      8  N   UNL     1      21.729   3.222  51.668  1.00  0.00    -0.218 NA
ATOM      9  C   UNL     1      21.910   4.271  50.860  1.00  0.00    +0.225 A 
ATOM     10  N   UNL     1      23.083   4.682  50.344  1.00  0.00    -0.234 NA
ATOM     11  C   UNL     1      24.186   3.959  50.667  1.00  0.00    +0.100 A 
ATOM     12  C   UNL     1      24.134   2.905  51.542  1.00  0.00    +0.058 A 
ENDROOT
BRANCH   1  13
ATOM     13  C   UNL     1      27.322   1.120  52.891  1.00  0.00    -0.025 A 
ATOM     14  C   UNL     1      28.327  -1.082  53.168  1.00  0.00    -0.051 A 
ATOM     15  C   UNL     1      29.179  -0.558  54.147  1.00  0.00    +0.003 A 
ATOM     16  C   UNL     1      27.397  -0.235  52.547  1.00  0.00    +0.011 A 
ATOM     17  C   UNL     1      29.120   0.794  54.484  1.00  0.00    +0.001 A 
ATOM     18  C   UNL     1      28.199   1.631  53.854  1.00  0.00    +0.008 A 
ATOM     19  C   UNL     1      28.360  -2.543  52.832  1.00  0.00    +0.044 C 
ENDBRANCH   1  13
BRANCH  11  20
ATOM     20  C   UNL     1      25.369   4.410  49.946  1.00  0.00    +0.067 A 
ATOM     21  C   UNL     1      26.475   3.736  49.460  1.00  0.00    +0.032 A 
ATOM     22  N   UNL     1      25.508   5.719  49.539  1.00  0.00    -0.340 N 
ATOM     23  C   UNL     1      27.318   4.682  48.824  1.00  0.00    +0.047 A 
ATOM     24  C   UNL     1      26.685   5.908  48.859  1.00  0.00    +0.106 A 
ATOM     25  H   UNL     1      24.837   6.443  49.747  1.00  0.00    +0.168 HD
BRANCH  24  26
ATOM     26  N   UNL     1      27.041   7.145  48.405  1.00  0.00    -0.354 N 
ATOM     27  C   UNL     1      28.430   7.384  47.942  1.00  0.00    +0.146 C 
ATOM     28  C   UNL     1      26.507   8.344  49.091  1.00  0.00    +0.146 C 
ATOM     29  C   UNL     1      29.309   7.839  49.120  1.00  0.00    +0.181 C 
ATOM     30  C   UNL     1      27.447   8.777  50.229  1.00  0.00    +0.181 C 
ATOM     31  O   UNL     1      28.780   9.022  49.745  1.00  0.00    -0.378 OA
ENDBRANCH  24  26
ENDBRANCH  11  20
TORSDOF 3
ENDMDL
MODEL 3
REMARK VINA RESULT:    -9.053      2.072      5.363
REMARK INTER + INTRA:         -11.244
REMARK INTER:                 -10.076
REMARK INTRA:                  -1.168
REMARK UNBOUND:                -0.604
REMARK SMILES Cc1cccc(C=C2C(=O)N(C)c3ncnc(-c4ccc(N5CCOCC5)[nH]4)c32)c1
REMARK SMILES IDX 7 1 8 2 9 3 10 4 11 5 12 6 13 7 14 8 15 9 16 10 17 11 29 12
REMARK SMILES IDX 6 13 2 14 3 15 30 16 4 17 5 18 1 19 18 20 19 21 28 22 20 23
REMARK SMILES IDX 21 24 22 26 23 27 27 28 24 29 26 30 25 31
REMARK H PARENT 28 25
ROOT
ATOM      1  C   UNL     1      22.469   1.669  51.693  1.00  0.00    +0.022 C 
ATOM      2  C   UNL     1      23.083   0.966  52.659  1.00  0.00    +0.054 C 
ATOM      3  C   UNL     1      22.404   0.150  53.735  1.00  0.00    +0.260 C 
ATOM      4  O   UNL     1      21.222   0.115  54.015  1.00  0.00    -0.269 OA
ATOM      5  N   UNL     1      23.432  -0.565  54.328  1.00  0.00    -0.295 N 
ATOM      6  C   UNL     1      23.282  -1.507  55.402  1.00  0.00    +0.155 C 
ATOM      7  C   UNL     1      24.673  -0.244  53.771  1.00  0.00    +0.147 A 
ATOM      8  N   UNL     1      25.828  -0.794  54.168  1.00  0.00    -0.218 NA
ATOM      9  C   UNL     1      26.899  -0.330  53.517  1.00  0.00    +0.225 A 
ATOM     10  N   UNL     1      26.898   0.618  52.563  1.00  0.00    -0.234 NA
ATOM     11  C   UNL     1      25.698   1.164  52.236  1.00  0.00    +0.100 A 
ATOM     12  C   UNL     1      24.524   0.719  52.787  1.00  0.00    +0.058 A 
ENDROOT
BRANCH   1  13
ATOM     13  C   UNL     1      21.027   1.886  51.530  1.00  0.00    -0.025 A 
ATOM     14  C   UNL     1      18.816   1.113  50.860  1.00  0.00    -0.051 A 
ATOM     15  C   UNL     1      18.266   2.310  51.332  1.00  0.00    +0.003 A 
ATOM     16  C   UNL     1      20.200   0.911  50.959  1.00  0.00    +0.011 A 
ATOM     17  C   UNL     1      19.081   3.279  51.917  1.00  0.00    +0.001 A 
ATOM     18  C   UNL     1      20.456   3.065  52.021  1.00  0.00    +0.008 A 
ATOM     19  C   UNL     1      17.948   0.087  50.194  1.00  0.00    +0.044 C 
ENDBRANCH   1  13
BRANCH  11  20
ATOM     20  C   UNL     1      25.834   2.270  51.299  1.00  0.00    +0.067 A 
ATOM     21  C   UNL     1      26.469   2.380  50.075  1.00  0.00    +0.032 A 
ATOM     22  N   UNL     1      25.198   3.474  51.511  1.00  0.00    -0.340 N 
ATOM     23  C   UNL     1      26.267   3.699  49.595  1.00  0.00    +0.047 A 
ATOM     24  C   UNL     1      25.448   4.357  50.490  1.00  0.00    +0.106 A 
ATOM     25  H   UNL     1      24.646   3.678  52.329  1.00  0.00    +0.168 HD
BRANCH  24  26
ATOM     26  N   UNL     1      24.948   5.626  50.523  1.00  0.00    -0.354 N 
ATOM     27  C   UNL     1      23.695   5.900  51.269  1.00  0.00    +0.146 C 
ATOM     28  C   UNL     1      25.021   6.462  49.303  1.00  0.00    +0.146 C 
ATOM     29  C   UNL     1      22.479   5.714  50.345  1.00  0.00    +0.181 C 
ATOM     30  C   UNL     1      23.762   6.267  48.441  1.00  0.00    +0.181 C 
ATOM     31  O   UNL     1      22.565   6.561  49.185  1.00  0.00    -0.378 OA
ENDBRANCH  24  26
ENDBRANCH  11  20
TORSDOF 3
ENDMDL
MODEL 4
REMARK VINA RESULT:    -8.863      2.577      6.235
REMARK INTER + INTRA:         -11.021
REMARK INTER:                  -9.979
REMARK INTRA:                  -1.042
REMARK UNBOUND:                -0.604
REMARK SMILES Cc1cccc(C=C2C(=O)N(C)c3ncnc(-c4ccc(N5CCOCC5)[nH]4)c32)c1
REMARK SMILES IDX 7 1 8 2 9 3 10 4 11 5 12 6 13 7 14 8 15 9 16 10 17 11 29 12
REMARK SMILES IDX 6 13 2 14 3 15 30 16 4 17 5 18 1 19 18 20 19 21 28 22 20 23
REMARK SMILES IDX 21 24 22 26 23 27 27 28 24 29 26 30 25 31
REMARK H PARENT 28 25
ROOT
ATOM      1  C   UNL     1      23.359   1.887  51.893  1.00  0.00    +0.022 C 
ATOM      2  C   UNL     1      22.118   1.498  52.229  1.00  0.00    +0.054 C 
ATOM      3  C   UNL     1      20.829   2.116  51.741  1.00  0.00    +0.260 C 
ATOM      4  O   UNL     1      20.682   3.145  51.111  1.00  0.00    -0.269 OA
ATOM      5  N   UNL     1      19.843   1.239  52.162  1.00  0.00    -0.295 N 
ATOM      6  C   UNL     1      18.435   1.385  51.916  1.00  0.00    +0.155 C 
ATOM      7  C   UNL     1      20.376   0.176  52.896  1.00  0.00    +0.147 A 
ATOM      8  N   UNL     1      19.635  -0.809  53.418  1.00  0.00    -0.218 NA
ATOM      9  C   UNL     1      20.343  -1.715  54.101  1.00  0.00    +0.225 A 
ATOM     10  N   UNL     1      21.671  -1.688  54.310  1.00  0.00    -0.234 NA
ATOM     11  C   UNL     1      22.358  -0.640  53.787  1.00  0.00    +0.100 A 
ATOM     12  C   UNL     1      21.749   0.312  53.010  1.00  0.00    +0.058 A 
ENDROOT
BRANCH   1  13
ATOM     13  C   UNL     1      23.738   3.046  51.077  1.00  0.00    -0.025 A 
ATOM     14  C   UNL     1      24.226   5.421  50.840  1.00  0.00    -0.051 A 
ATOM     15  C   UNL     1      24.563   5.207  49.498  1.00  0.00    +0.003 A 
ATOM     16  C   UNL     1      23.809   4.334  51.621  1.00  0.00    +0.011 A 
ATOM     17  C   UNL     1      24.509   3.925  48.953  1.00  0.00    +0.001 A 
ATOM     18  C   UNL     1      24.104   2.847  49.741  1.00  0.00    +0.008 A 
ATOM     19  C   UNL     1      24.243   6.805  51.419  1.00  0.00    +0.044 C 
ENDBRANCH   1  13
BRANCH  11  20
ATOM     20  C   UNL     1      23.757  -0.643  54.192  1.00  0.00    +0.067 A 
ATOM     21  C   UNL     1      24.375  -0.892  55.404  1.00  0.00    +0.032 A 
ATOM     22  N   UNL     1      24.770  -0.449  53.278  1.00  0.00    -0.340 N 
ATOM     23  C   UNL     1      25.774  -0.764  55.216  1.00  0.00    +0.047 A 
ATOM     24  C   UNL     1      26.003  -0.517  53.878  1.00  0.00    +0.106 A 
ATOM     25  H   UNL     1      24.612  -0.255  52.301  1.00  0.00    +0.168 HD
BRANCH  24  26
ATOM     26  N   UNL     1      27.144  -0.309  53.158  1.00  0.00    -0.354 N 
ATOM     27  C   UNL     1      28.445  -0.201  53.863  1.00  0.00    +0.146 C 
ATOM     28  C   UNL     1      27.105   0.606  51.994  1.00  0.00    +0.146 C 
ATOM     29  C   UNL     1      28.718   1.264  54.246  1.00  0.00    +0.181 C 
ATOM     30  C   UNL     1      27.427   2.045  52.429  1.00  0.00    +0.181 C 
ATOM     31  O   UNL     1      28.703   2.121  53.090  1.00  0.00    -0.378 OA
ENDBRANCH  24  26
ENDBRANCH  11  20
TORSDOF 3
ENDMDL
MODEL 5
REMARK VINA RESULT:    -8.757      2.434      5.655
REMARK INTER + INTRA:         -10.897
REMARK INTER:                 -10.363
REMARK INTRA:                  -0.533
REMARK UNBOUND:                -0.604
REMARK SMILES Cc1cccc(C=C2C(=O)N(C)c3ncnc(-c4ccc(N5CCOCC5)[nH]4)c32)c1
REMARK SMILES IDX 7 1 8 2 9 3 10 4 11 5 12 6 13 7 14 8 15 9 16 10 17 11 29 12
REMARK SMILES IDX 6 13 2 14 3 15 30 16 4 17 5 18 1 19 18 20 19 21 28 22 20 23
REMARK SMILES IDX 21 24 22 26 23 27 27 28 24 29 26 30 25 31
REMARK H PARENT 28 25
ROOT
ATOM      1  C   UNL     1      24.618   2.533  51.648  1.00  0.00    +0.022 C 
ATOM      2  C   UNL     1      25.299   1.647  52.393  1.00  0.00    +0.054 C 
ATOM      3  C   UNL     1      26.797   1.615  52.590  1.00  0.00    +0.260 C 
ATOM      4  O   UNL     1      27.645   2.257  52.001  1.00  0.00    -0.269 OA
ATOM      5  N   UNL     1      26.993   0.694  53.606  1.00  0.00    -0.295 N 
ATOM      6  C   UNL     1      28.264   0.330  54.169  1.00  0.00    +0.155 C 
ATOM      7  C   UNL     1      25.789   0.120  54.023  1.00  0.00    +0.147 A 
ATOM      8  N   UNL     1      25.704  -0.800  54.992  1.00  0.00    -0.218 NA
ATOM      9  C   UNL     1      24.459  -1.231  55.220  1.00  0.00    +0.225 A 
ATOM     10  N   UNL     1      23.353  -0.844  54.558  1.00  0.00    -0.234 NA
ATOM     11  C   UNL     1      23.515   0.062  53.561  1.00  0.00    +0.100 A 
ATOM     12  C   UNL     1      24.734   0.627  53.283  1.00  0.00    +0.058 A 
ENDROOT
BRANCH   1  13
ATOM     13  C   UNL     1      25.172   3.585  50.788  1.00  0.00    -0.025 A 
ATOM     14  C   UNL     1      25.385   5.927  50.150  1.00  0.00    -0.051 A 
ATOM     15  C   UNL     1      26.333   5.566  49.185  1.00  0.00    +0.003 A 
ATOM     16  C   UNL     1      24.805   4.927  50.945  1.00  0.00    +0.011 A 
ATOM     17  C   UNL     1      26.714   4.234  49.033  1.00  0.00    +0.001 A 
ATOM     18  C   UNL     1      26.140   3.247  49.835  1.00  0.00    +0.008 A 
ATOM     19  C   UNL     1      24.943   7.353  50.288  1.00  0.00    +0.044 C 
ENDBRANCH   1  13
BRANCH  11  20
ATOM     20  C   UNL     1      22.279   0.301  52.828  1.00  0.00    +0.067 A 
ATOM     21  C   UNL     1      21.452  -0.536  52.102  1.00  0.00    +0.032 A 
ATOM     22  N   UNL     1      21.665   1.535  52.837  1.00  0.00    -0.340 N 
ATOM     23  C   UNL     1      20.371   0.238  51.609  1.00  0.00    +0.047 A 
ATOM     24  C   UNL     1      20.506   1.520  52.102  1.00  0.00    +0.106 A 
ATOM     25  H   UNL     1      22.044   2.344  53.304  1.00  0.00    +0.168 HD
BRANCH  24  26
ATOM     26  N   UNL     1      19.763   2.654  51.944  1.00  0.00    -0.354 N 
ATOM     27  C   UNL     1      18.617   2.654  51.001  1.00  0.00    +0.146 C 
ATOM     28  C   UNL     1      20.447   3.968  51.934  1.00  0.00    +0.146 C 
ATOM     29  C   UNL     1      19.090   3.069  49.597  1.00  0.00    +0.181 C 
ATOM     30  C   UNL     1      20.857   4.349  50.502  1.00  0.00    +0.181 C 
ATOM     31  O   UNL     1      19.723   4.362  49.615  1.00  0.00    -0.378 OA
ENDBRANCH  24  26
ENDBRANCH  11  20
TORSDOF 3
ENDMDL
MODEL 6
REMARK VINA RESULT:    -8.740      1.232      1.787
REMARK INTER + INTRA:         -10.876
REMARK INTER:                  -9.813
REMARK INTRA:                  -1.063
REMARK UNBOUND:                -0.604
REMARK SMILES Cc1cccc(C=C2C(=O)N(C)c3ncnc(-c4ccc(N5CCOCC5)[nH]4)c32)c1
REMARK SMILES IDX 7 1 8 2 9 3 10 4 11 5 12 6 13 7 14 8 15 9 16 10 17 11 29 12
REMARK SMILES IDX 6 13 2 14 3 15 30 16 4 17 5 18 1 19 18 20 19 21 28 22 20 23
REMARK SMILES IDX 21 24 22 26 23 27 27 28 24 29 26 30 25 31
REMARK H PARENT 28 25
ROOT
ATOM      1  C   UNL     1      24.945   1.488  52.336  1.00  0.00    +0.022 C 
ATOM      2  C   UNL     1      23.627   1.315  52.529  1.00  0.00    +0.054 C 
ATOM      3  C   UNL     1      22.981   0.188  53.300  1.00  0.00    +0.260 C 
ATOM      4  O   UNL     1      23.503  -0.823  53.729  1.00  0.00    -0.269 OA
ATOM      5  N   UNL     1      21.654   0.568  53.422  1.00  0.00    -0.295 N 
ATOM      6  C   UNL     1      20.632  -0.178  54.103  1.00  0.00    +0.155 C 
ATOM      7  C   UNL     1      21.401   1.778  52.771  1.00  0.00    +0.147 A 
ATOM      8  N   UNL     1      20.197   2.364  52.738  1.00  0.00    -0.218 NA
ATOM      9  C   UNL     1      20.171   3.506  52.044  1.00  0.00    +0.225 A 
ATOM     10  N   UNL     1      21.208   4.060  51.391  1.00  0.00    -0.234 NA
ATOM     11  C   UNL     1      22.391   3.395  51.431  1.00  0.00    +0.100 A 
ATOM     12  C   UNL     1      22.555   2.250  52.169  1.00  0.00    +0.058 A 
ENDROOT
BRANCH   1  13
ATOM     13  C   UNL     1      26.029   0.581  52.730  1.00  0.00    -0.025 A 
ATOM     14  C   UNL     1      27.814  -0.074  54.253  1.00  0.00    -0.051 A 
ATOM     15  C   UNL     1      28.020  -1.233  53.496  1.00  0.00    +0.003 A 
ATOM     16  C   UNL     1      26.818   0.831  53.860  1.00  0.00    +0.011 A 
ATOM     17  C   UNL     1      27.228  -1.496  52.379  1.00  0.00    +0.001 A 
ATOM     18  C   UNL     1      26.232  -0.595  52.001  1.00  0.00    +0.008 A 
ATOM     19  C   UNL     1      28.691   0.233  55.431  1.00  0.00    +0.044 C 
ENDBRANCH   1  13
BRANCH  11  20
ATOM     20  C   UNL     1      23.398   4.011  50.580  1.00  0.00    +0.067 A 
ATOM     21  C   UNL     1      24.080   3.557  49.465  1.00  0.00    +0.032 A 
ATOM     22  N   UNL     1      23.787   5.322  50.759  1.00  0.00    -0.340 N 
ATOM     23  C   UNL     1      24.944   4.592  49.028  1.00  0.00    +0.047 A 
ATOM     24  C   UNL     1      24.726   5.695  49.830  1.00  0.00    +0.106 A 
ATOM     25  H   UNL     1      23.441   5.911  51.500  1.00  0.00    +0.168 HD
BRANCH  24  26
ATOM     26  N   UNL     1      25.279   6.942  49.856  1.00  0.00    -0.354 N 
ATOM     27  C   UNL     1      24.479   8.088  50.355  1.00  0.00    +0.146 C 
ATOM     28  C   UNL     1      26.154   7.365  48.738  1.00  0.00    +0.146 C 
ATOM     29  C   UNL     1      23.698   8.732  49.196  1.00  0.00    +0.181 C 
ATOM     30  C   UNL     1      25.326   8.039  47.632  1.00  0.00    +0.181 C 
ATOM     31  O   UNL     1      24.579   9.159  48.142  1.00  0.00    -0.378 OA
ENDBRANCH  24  26
ENDBRANCH  11  20
TORSDOF 3
ENDMDL
MODEL 7
REMARK VINA RESULT:    -8.623      1.678      2.307
REMARK INTER + INTRA:         -10.739
REMARK INTER:                  -9.696
REMARK INTRA:                  -1.043
REMARK UNBOUND:                -0.604
REMARK SMILES Cc1cccc(C=C2C(=O)N(C)c3ncnc(-c4ccc(N5CCOCC5)[nH]4)c32)c1
REMARK SMILES IDX 7 1 8 2 9 3 10 4 11 5 12 6 13 7 14 8 15 9 16 10 17 11 29 12
REMARK SMILES IDX 6 13 2 14 3 15 30 16 4 17 5 18 1 19 18 20 19 21 28 22 20 23
REMARK SMILES IDX 21 24 22 26 23 27 27 28 24 29 26 30 25 31
REMARK H PARENT 28 25
ROOT
ATOM      1  C   UNL     1      23.676   1.375  52.195  1.00  0.00    +0.022 C 
ATOM      2  C   UNL     1      22.552   0.668  52.398  1.00  0.00    +0.054 C 
ATOM      3  C   UNL     1      22.377  -0.462  53.385  1.00  0.00    +0.260 C 
ATOM      4  O   UNL     1      23.233  -1.030  54.035  1.00  0.00    -0.269 OA
ATOM      5  N   UNL     1      21.013  -0.703  53.397  1.00  0.00    -0.295 N 
ATOM      6  C   UNL     1      20.345  -1.686  54.206  1.00  0.00    +0.155 C 
ATOM      7  C   UNL     1      20.334   0.118  52.492  1.00  0.00    +0.147 A 
ATOM      8  N   UNL     1      19.008   0.083  52.310  1.00  0.00    -0.218 NA
ATOM      9  C   UNL     1      18.568   0.939  51.382  1.00  0.00    +0.225 A 
ATOM     10  N   UNL     1      19.328   1.766  50.642  1.00  0.00    -0.234 NA
ATOM     11  C   UNL     1      20.669   1.723  50.848  1.00  0.00    +0.100 A 
ATOM     12  C   UNL     1      21.229   0.936  51.822  1.00  0.00    +0.058 A 
ENDROOT
BRANCH   1  13
ATOM     13  C   UNL     1      24.994   1.143  52.799  1.00  0.00    -0.025 A 
ATOM     14  C   UNL     1      27.008  -0.200  53.076  1.00  0.00    -0.051 A 
ATOM     15  C   UNL     1      27.546   0.796  53.898  1.00  0.00    +0.003 A 
ATOM     16  C   UNL     1      25.726  -0.020  52.533  1.00  0.00    +0.011 A 
ATOM     17  C   UNL     1      26.828   1.964  54.154  1.00  0.00    +0.001 A 
ATOM     18  C   UNL     1      25.559   2.140  53.602  1.00  0.00    +0.008 A 
ATOM     19  C   UNL     1      27.759  -1.475  52.830  1.00  0.00    +0.044 C 
ENDBRANCH   1  13
BRANCH  11  20
ATOM     20  C   UNL     1      21.399   2.554  49.901  1.00  0.00    +0.067 A 
ATOM     21  C   UNL     1      21.879   2.310  48.627  1.00  0.00    +0.032 A 
ATOM     22  N   UNL     1      21.664   3.881  50.164  1.00  0.00    -0.340 N 
ATOM     23  C   UNL     1      22.508   3.494  48.163  1.00  0.00    +0.047 A 
ATOM     24  C   UNL     1      22.338   4.470  49.123  1.00  0.00    +0.106 A 
ATOM     25  H   UNL     1      21.414   4.341  51.026  1.00  0.00    +0.168 HD
BRANCH  24  26
ATOM     26  N   UNL     1      22.737   5.774  49.197  1.00  0.00    -0.354 N 
ATOM     27  C   UNL     1      23.792   6.270  48.279  1.00  0.00    +0.146 C 
ATOM     28  C   UNL     1      22.860   6.415  50.526  1.00  0.00    +0.146 C 
ATOM     29  C   UNL     1      25.180   6.070  48.912  1.00  0.00    +0.181 C 
ATOM     30  C   UNL     1      24.278   6.220  51.089  1.00  0.00    +0.181 C 
ATOM     31  O   UNL     1      25.276   6.730  50.187  1.00  0.00    -0.378 OA
ENDBRANCH  24  26
ENDBRANCH  11  20
TORSDOF 3
ENDMDL
MODEL 8
REMARK VINA RESULT:    -8.584      2.186      5.751
REMARK INTER + INTRA:         -10.693
REMARK INTER:                  -9.624
REMARK INTRA:                  -1.069
REMARK UNBOUND:                -0.604
REMARK SMILES Cc1cccc(C=C2C(=O)N(C)c3ncnc(-c4ccc(N5CCOCC5)[nH]4)c32)c1
REMARK SMILES IDX 7 1 8 2 9 3 10 4 11 5 12 6 13 7 14 8 15 9 16 10 17 11 29 12
REMARK SMILES IDX 6 13 2 14 3 15 30 16 4 17 5 18 1 19 18 20 19 21 28 22 20 23
REMARK SMILES IDX 21 24 22 26 23 27 27 28 24 29 26 30 25 31
REMARK H PARENT 28 25
ROOT
ATOM      1  C   UNL     1      21.091   1.679  51.276  1.00  0.00    +0.022 C 
ATOM      2  C   UNL     1      21.803   1.045  52.222  1.00  0.00    +0.054 C 
ATOM      3  C   UNL     1      21.247   0.151  53.305  1.00  0.00    +0.260 C 
ATOM      4  O   UNL     1      20.083  -0.021  53.611  1.00  0.00    -0.269 OA
ATOM      5  N   UNL     1      22.362  -0.446  53.869  1.00  0.00    -0.295 N 
ATOM      6  C   UNL     1      22.345  -1.406  54.938  1.00  0.00    +0.155 C 
ATOM      7  C   UNL     1      23.546   0.018  53.288  1.00  0.00    +0.147 A 
ATOM      8  N   UNL     1      24.764  -0.400  53.654  1.00  0.00    -0.218 NA
ATOM      9  C   UNL     1      25.761   0.187  52.983  1.00  0.00    +0.225 A 
ATOM     10  N   UNL     1      25.629   1.135  52.039  1.00  0.00    -0.234 NA
ATOM     11  C   UNL     1      24.369   1.542  51.743  1.00  0.00    +0.100 A 
ATOM     12  C   UNL     1      23.265   0.963  52.316  1.00  0.00    +0.058 A 
ENDROOT
BRANCH   1  13
ATOM     13  C   UNL     1      19.631   1.732  51.147  1.00  0.00    -0.025 A 
ATOM     14  C   UNL     1      17.510   0.730  50.488  1.00  0.00    -0.051 A 
ATOM     15  C   UNL     1      16.835   1.837  51.014  1.00  0.00    +0.003 A 
ATOM     16  C   UNL     1      18.910   0.687  50.555  1.00  0.00    +0.011 A 
ATOM     17  C   UNL     1      17.545   2.874  51.619  1.00  0.00    +0.001 A 
ATOM     18  C   UNL     1      18.937   2.819  51.690  1.00  0.00    +0.008 A 
ATOM     19  C   UNL     1      16.753  -0.368  49.800  1.00  0.00    +0.044 C 
ENDBRANCH   1  13
BRANCH  11  20
ATOM     20  C   UNL     1      24.356   2.663  50.813  1.00  0.00    +0.067 A 
ATOM     21  C   UNL     1      23.886   2.792  49.519  1.00  0.00    +0.032 A 
ATOM     22  N   UNL     1      24.799   3.913  51.187  1.00  0.00    -0.340 N 
ATOM     23  C   UNL     1      24.128   4.124  49.096  1.00  0.00    +0.047 A 
ATOM     24  C   UNL     1      24.672   4.815  50.160  1.00  0.00    +0.106 A 
ATOM     25  H   UNL     1      25.191   4.119  52.093  1.00  0.00    +0.168 HD
BRANCH  24  26
ATOM     26  N   UNL     1      25.094   6.105  50.306  1.00  0.00    -0.354 N 
ATOM     27  C   UNL     1      24.371   7.012  51.231  1.00  0.00    +0.146 C 
ATOM     28  C   UNL     1      25.569   6.846  49.115  1.00  0.00    +0.146 C 
ATOM     29  C   UNL     1      23.234   7.733  50.484  1.00  0.00    +0.181 C 
ATOM     30  C   UNL     1      24.400   7.580  48.435  1.00  0.00    +0.181 C 
ATOM     31  O   UNL     1      23.733   8.467  49.351  1.00  0.00    -0.378 OA
ENDBRANCH  24  26
ENDBRANCH  11  20
TORSDOF 3
ENDMDL
MODEL 9
REMARK VINA RESULT:    -8.059      2.956      6.578
REMARK INTER + INTRA:         -10.077
REMARK INTER:                  -8.855
REMARK INTRA:                  -1.222
REMARK UNBOUND:                -0.604
REMARK SMILES Cc1cccc(C=C2C(=O)N(C)c3ncnc(-c4ccc(N5CCOCC5)[nH]4)c32)c1
REMARK SMILES IDX 7 1 8 2 9 3 10 4 11 5 12 6 13 7 14 8 15 9 16 10 17 11 29 12
REMARK SMILES IDX 6 13 2 14 3 15 30 16 4 17 5 18 1 19 18 20 19 21 28 22 20 23
REMARK SMILES IDX 21 24 22 26 23 27 27 28 24 29 26 30 25 31
REMARK H PARENT 28 25
ROOT
ATOM      1  C   UNL     1      20.544   1.426  51.360  1.00  0.00    +0.022 C 
ATOM      2  C   UNL     1      21.276   0.775  52.278  1.00  0.00    +0.054 C 
ATOM      3  C   UNL     1      20.752  -0.199  53.307  1.00  0.00    +0.260 C 
ATOM      4  O   UNL     1      19.595  -0.438  53.592  1.00  0.00    -0.269 OA
ATOM      5  N   UNL     1      21.889  -0.775  53.850  1.00  0.00    -0.295 N 
ATOM      6  C   UNL     1      21.907  -1.789  54.867  1.00  0.00    +0.155 C 
ATOM      7  C   UNL     1      23.055  -0.229  53.306  1.00  0.00    +0.147 A 
ATOM      8  N   UNL     1      24.288  -0.611  53.662  1.00  0.00    -0.218 NA
ATOM      9  C   UNL     1      25.263   0.055  53.033  1.00  0.00    +0.225 A 
ATOM     10  N   UNL     1      25.096   1.045  52.138  1.00  0.00    -0.234 NA
ATOM     11  C   UNL     1      23.820   1.411  51.852  1.00  0.00    +0.100 A 
ATOM     12  C   UNL     1      22.740   0.754  52.382  1.00  0.00    +0.058 A 
ENDROOT
BRANCH   1  13
ATOM     13  C   UNL     1      19.083   1.421  51.219  1.00  0.00    -0.025 A 
ATOM     14  C   UNL     1      16.911   2.495  51.474  1.00  0.00    -0.051 A 
ATOM     15  C   UNL     1      16.309   1.404  50.836  1.00  0.00    +0.003 A 
ATOM     16  C   UNL     1      18.301   2.493  51.665  1.00  0.00    +0.011 A 
ATOM     17  C   UNL     1      17.084   0.340  50.376  1.00  0.00    +0.001 A 
ATOM     18  C   UNL     1      18.467   0.351  50.561  1.00  0.00    +0.008 A 
ATOM     19  C   UNL     1      16.078   3.622  52.007  1.00  0.00    +0.044 C 
ENDBRANCH   1  13
BRANCH  11  20
ATOM     20  C   UNL     1      23.765   2.577  50.982  1.00  0.00    +0.067 A 
ATOM     21  C   UNL     1      24.231   3.871  51.130  1.00  0.00    +0.032 A 
ATOM     22  N   UNL     1      23.243   2.501  49.708  1.00  0.00    -0.340 N 
ATOM     23  C   UNL     1      23.906   4.590  49.951  1.00  0.00    +0.047 A 
ATOM     24  C   UNL     1      23.316   3.711  49.065  1.00  0.00    +0.106 A 
ATOM     25  H   UNL     1      22.836   1.663  49.321  1.00  0.00    +0.168 HD
BRANCH  24  26
ATOM     26  N   UNL     1      22.814   3.866  47.806  1.00  0.00    -0.354 N 
ATOM     27  C   UNL     1      22.396   5.213  47.345  1.00  0.00    +0.146 C 
ATOM     28  C   UNL     1      21.915   2.826  47.256  1.00  0.00    +0.146 C 
ATOM     29  C   UNL     1      20.917   5.456  47.694  1.00  0.00    +0.181 C 
ATOM     30  C   UNL     1      20.450   3.143  47.599  1.00  0.00    +0.181 C 
ATOM     31  O   UNL     1      20.068   4.445  47.120  1.00  0.00    -0.378 OA
ENDBRANCH  24  26
ENDBRANCH  11  20
TORSDOF 3
ENDMDL
