REMARK SMILES O=C(O)c1cccc(Br)c1
REMARK SMILES IDX 1 1 2 2 3 3 4 5 5 6 10 7 6 8 8 9 7 10 9 11
REMARK H PARENT 3 4
ROOT
ATOM      1  O   UNL     1       2.546  -1.654   0.016  1.00  0.00    -0.246 OA
ATOM      2  C   UNL     1       2.054  -0.547  -0.103  1.00  0.00    +0.335 C 
ENDROOT
BRANCH   2   3
ATOM      3  O   UNL     1       2.817   0.536  -0.332  1.00  0.00    -0.478 OA
ATOM      4  H   UNL     1       3.730   0.180  -0.362  1.00  0.00    +0.297 HD
ENDBRANCH   2   3
BRANCH   2   5
ATOM      5  C   UNL     1       0.609  -0.227  -0.021  1.00  0.00    +0.061 A 
ATOM      6  C   UNL     1      -0.290  -1.276   0.215  1.00  0.00    +0.016 A 
ATOM      7  C   UNL     1       0.130   1.080  -0.172  1.00  0.00    +0.031 A 
ATOM      8  C   UNL     1      -1.660  -1.022   0.300  1.00  0.00    +0.002 A 
ATOM      9  C   UNL     1      -1.240   1.323  -0.085  1.00  0.00    +0.018 A 
ATOM     10  C   UNL     1      -2.136   0.280   0.150  1.00  0.00    +0.016 A 
ATOM     11 Br   UNL     1      -1.893   3.087  -0.287  1.00  0.00    -0.051 Br
ENDBRANCH   2   5
TORSDOF 2
