MODEL 1
REMARK VINA RESULT:    -8.244      0.000      0.000
REMARK INTER + INTRA:         -12.212
REMARK INTER:                 -10.894
REMARK INTRA:                  -1.318
REMARK UNBOUND:                -1.318
REMARK SMILES CCN(c1ccccc1)c1[nH]c(-c2ccc(O)c([N+](=O)[O-])c2)cc1C
REMARK SMILES IDX 10 1 11 2 12 3 23 4 24 5 25 6 3 8 2 9 1 10 4 11 5 12 9 13
REMARK SMILES IDX 6 14 8 15 7 16 13 17 14 18 22 19 15 20 18 21 16 22 19 23
REMARK SMILES IDX 20 24 21 25 17 26
REMARK H PARENT 11 7 17 27
ROOT
ATOM      1  C   UNL     1      23.244   3.472  50.237  1.00  0.00    +0.113 A 
ATOM      2  N   UNL     1      23.412   2.834  51.439  1.00  0.00    -0.341 N 
ATOM      3  C   UNL     1      22.898   1.556  51.398  1.00  0.00    +0.048 A 
ATOM      4  C   UNL     1      22.384   1.394  50.123  1.00  0.00    +0.034 A 
ATOM      5  C   UNL     1      22.604   2.592  49.382  1.00  0.00    -0.008 A 
ATOM      6  C   UNL     1      22.230   2.817  47.961  1.00  0.00    +0.048 C 
ATOM      7  H   UNL     1      23.800   3.281  52.255  1.00  0.00    +0.168 HD
ENDROOT
BRANCH   1   8
ATOM      8  N   UNL     1      23.682   4.760  50.086  1.00  0.00    -0.328 N 
BRANCH   8   9
ATOM      9  C   UNL     1      22.918   5.819  50.776  1.00  0.00    +0.121 C 
ATOM     10  C   UNL     1      21.554   6.044  50.136  1.00  0.00    +0.028 C 
ENDBRANCH   8   9
BRANCH   8  11
ATOM     11  C   UNL     1      24.948   5.077  49.534  1.00  0.00    +0.042 A 
ATOM     12  C   UNL     1      25.988   4.126  49.553  1.00  0.00    +0.026 A 
ATOM     13  C   UNL     1      25.241   6.310  48.926  1.00  0.00    +0.026 A 
ATOM     14  C   UNL     1      27.250   4.391  49.010  1.00  0.00    +0.002 A 
ATOM     15  C   UNL     1      26.503   6.583  48.382  1.00  0.00    +0.002 A 
ATOM     16  C   UNL     1      27.508   5.623  48.424  1.00  0.00    +0.000 A 
ENDBRANCH   8  11
ENDBRANCH   1   8
BRANCH   3  17
ATOM     17  C   UNL     1      22.917   0.643  52.542  1.00  0.00    +0.005 A 
ATOM     18  C   UNL     1      21.723   0.082  53.017  1.00  0.00    +0.014 A 
ATOM     19  C   UNL     1      24.119   0.301  53.177  1.00  0.00    +0.100 A 
ATOM     20  C   UNL     1      21.723  -0.796  54.105  1.00  0.00    +0.054 A 
ATOM     21  C   UNL     1      24.119  -0.582  54.271  1.00  0.00    +0.311 A 
ATOM     22  C   UNL     1      22.918  -1.133  54.736  1.00  0.00    +0.194 A 
BRANCH  21  23
ATOM     23  N   UNL     1      25.395  -0.908  54.909  1.00  0.00    +0.066 N 
ATOM     24  O   UNL     1      25.399  -1.051  56.143  1.00  0.00    -0.258 OA
ATOM     25  O   UNL     1      26.397  -1.017  54.189  1.00  0.00    -0.258 OA
ENDBRANCH  21  23
BRANCH  22  26
ATOM     26  O   UNL     1      22.798  -1.999  55.788  1.00  0.00    -0.502 OA
ATOM     27  H   UNL     1      23.135  -1.580  56.608  1.00  0.00    +0.293 HD
ENDBRANCH  22  26
ENDBRANCH   3  17
TORSDOF 6
ENDMDL
MODEL 2
REMARK VINA RESULT:    -8.230      0.487      1.069
REMARK INTER + INTRA:         -12.194
REMARK INTER:                 -10.837
REMARK INTRA:                  -1.357
REMARK UNBOUND:                -1.318
REMARK SMILES CCN(c1ccccc1)c1[nH]c(-c2ccc(O)c([N+](=O)[O-])c2)cc1C
REMARK SMILES IDX 10 1 11 2 12 3 23 4 24 5 25 6 3 8 2 9 1 10 4 11 5 12 9 13
REMARK SMILES IDX 6 14 8 15 7 16 13 17 14 18 22 19 15 20 18 21 16 22 19 23
REMARK SMILES IDX 20 24 21 25 17 26
REMARK H PARENT 11 7 17 27
ROOT
ATOM      1  C   UNL     1      23.661   3.779  50.404  1.00  0.00    +0.113 A 
ATOM      2  N   UNL     1      23.780   3.056  51.564  1.00  0.00    -0.341 N 
ATOM      3  C   UNL     1      23.153   1.834  51.454  1.00  0.00    +0.048 A 
ATOM      4  C   UNL     1      22.619   1.796  50.177  1.00  0.00    +0.034 A 
ATOM      5  C   UNL     1      22.940   3.012  49.506  1.00  0.00    -0.008 A 
ATOM      6  C   UNL     1      22.578   3.354  48.106  1.00  0.00    +0.048 C 
ATOM      7  H   UNL     1      24.211   3.417  52.401  1.00  0.00    +0.168 HD
ENDROOT
BRANCH   1   8
ATOM      8  N   UNL     1      24.211   5.029  50.325  1.00  0.00    -0.328 N 
BRANCH   8   9
ATOM      9  C   UNL     1      23.664   6.066  51.223  1.00  0.00    +0.121 C 
ATOM     10  C   UNL     1      22.195   6.349  50.933  1.00  0.00    +0.028 C 
ENDBRANCH   8   9
BRANCH   8  11
ATOM     11  C   UNL     1      25.420   5.290  49.633  1.00  0.00    +0.042 A 
ATOM     12  C   UNL     1      25.701   6.589  49.161  1.00  0.00    +0.026 A 
ATOM     13  C   UNL     1      26.404   4.315  49.397  1.00  0.00    +0.026 A 
ATOM     14  C   UNL     1      26.886   6.895  48.482  1.00  0.00    +0.002 A 
ATOM     15  C   UNL     1      27.592   4.614  48.717  1.00  0.00    +0.002 A 
ATOM     16  C   UNL     1      27.832   5.905  48.259  1.00  0.00    +0.000 A 
ENDBRANCH   8  11
ENDBRANCH   1   8
BRANCH   3  17
ATOM     17  C   UNL     1      23.098   0.855  52.541  1.00  0.00    +0.005 A 
ATOM     18  C   UNL     1      21.865   0.338  52.962  1.00  0.00    +0.014 A 
ATOM     19  C   UNL     1      24.266   0.408  53.173  1.00  0.00    +0.100 A 
ATOM     20  C   UNL     1      21.794  -0.601  53.995  1.00  0.00    +0.054 A 
ATOM     21  C   UNL     1      24.194  -0.536  54.212  1.00  0.00    +0.311 A 
ATOM     22  C   UNL     1      22.955  -1.043  54.624  1.00  0.00    +0.194 A 
BRANCH  21  23
ATOM     23  N   UNL     1      25.437  -0.973  54.850  1.00  0.00    +0.066 N 
ATOM     24  O   UNL     1      25.387  -1.276  56.053  1.00  0.00    -0.258 OA
ATOM     25  O   UNL     1      26.465  -1.009  54.161  1.00  0.00    -0.258 OA
ENDBRANCH  21  23
BRANCH  22  26
ATOM     26  O   UNL     1      22.766  -1.962  55.620  1.00  0.00    -0.502 OA
ATOM     27  H   UNL     1      22.637  -1.505  56.478  1.00  0.00    +0.293 HD
ENDBRANCH  22  26
ENDBRANCH   3  17
TORSDOF 6
ENDMDL
MODEL 3
REMARK VINA RESULT:    -7.880      3.299      5.948
REMARK INTER + INTRA:         -11.732
REMARK INTER:                 -10.643
REMARK INTRA:                  -1.088
REMARK UNBOUND:                -1.318
REMARK SMILES CCN(c1ccccc1)c1[nH]c(-c2ccc(O)c([N+](=O)[O-])c2)cc1C
REMARK SMILES IDX 10 1 11 2 12 3 23 4 24 5 25 6 3 8 2 9 1 10 4 11 5 12 9 13
REMARK SMILES IDX 6 14 8 15 7 16 13 17 14 18 22 19 15 20 18 21 16 22 19 23
REMARK SMILES IDX 20 24 21 25 17 26
REMARK H PARENT 11 7 17 27
ROOT
ATOM      1  C   UNL     1      22.872   1.864  51.658  1.00  0.00    +0.113 A 
ATOM      2  N   UNL     1      23.959   1.045  51.830  1.00  0.00    -0.341 N 
ATOM      3  C   UNL     1      24.935   1.668  52.577  1.00  0.00    +0.048 A 
ATOM      4  C   UNL     1      24.440   2.926  52.876  1.00  0.00    +0.034 A 
ATOM      5  C   UNL     1      23.138   3.056  52.309  1.00  0.00    -0.008 A 
ATOM      6  C   UNL     1      22.252   4.243  52.428  1.00  0.00    +0.048 C 
ATOM      7  H   UNL     1      24.043   0.137  51.401  1.00  0.00    +0.168 HD
ENDROOT
BRANCH   1   8
ATOM      8  N   UNL     1      21.800   1.423  50.930  1.00  0.00    -0.328 N 
BRANCH   8   9
ATOM      9  C   UNL     1      21.936   1.423  49.460  1.00  0.00    +0.121 C 
ATOM     10  C   UNL     1      22.727   2.627  48.963  1.00  0.00    +0.028 C 
ENDBRANCH   8   9
BRANCH   8  11
ATOM     11  C   UNL     1      20.706   0.740  51.517  1.00  0.00    +0.042 A 
ATOM     12  C   UNL     1      20.837   0.155  52.793  1.00  0.00    +0.026 A 
ATOM     13  C   UNL     1      19.447   0.622  50.903  1.00  0.00    +0.026 A 
ATOM     14  C   UNL     1      19.781  -0.519  53.416  1.00  0.00    +0.002 A 
ATOM     15  C   UNL     1      18.385  -0.053  51.521  1.00  0.00    +0.002 A 
ATOM     16  C   UNL     1      18.553  -0.624  52.777  1.00  0.00    +0.000 A 
ENDBRANCH   8  11
ENDBRANCH   1   8
BRANCH   3  17
ATOM     17  C   UNL     1      26.218   1.045  52.907  1.00  0.00    +0.005 A 
ATOM     18  C   UNL     1      27.262   1.817  53.436  1.00  0.00    +0.014 A 
ATOM     19  C   UNL     1      26.427  -0.328  52.715  1.00  0.00    +0.100 A 
ATOM     20  C   UNL     1      28.491   1.237  53.762  1.00  0.00    +0.054 A 
ATOM     21  C   UNL     1      27.664  -0.910  53.043  1.00  0.00    +0.311 A 
ATOM     22  C   UNL     1      28.699  -0.126  53.569  1.00  0.00    +0.194 A 
BRANCH  21  23
ATOM     23  N   UNL     1      27.844  -2.346  52.822  1.00  0.00    +0.066 N 
ATOM     24  O   UNL     1      27.056  -2.908  52.044  1.00  0.00    -0.258 OA
ATOM     25  O   UNL     1      28.762  -2.919  53.424  1.00  0.00    -0.258 OA
ENDBRANCH  21  23
BRANCH  22  26
ATOM     26  O   UNL     1      29.939  -0.583  53.923  1.00  0.00    -0.502 OA
ATOM     27  H   UNL     1      30.010  -0.638  54.899  1.00  0.00    +0.293 HD
ENDBRANCH  22  26
ENDBRANCH   3  17
TORSDOF 6
ENDMDL
MODEL 4
REMARK VINA RESULT:    -7.840      4.182      6.629
REMARK INTER + INTRA:         -11.679
REMARK INTER:                 -10.532
REMARK INTRA:                  -1.148
REMARK UNBOUND:                -1.318
REMARK SMILES CCN(c1ccccc1)c1[nH]c(-c2ccc(O)c([N+](=O)[O-])c2)cc1C
REMARK SMILES IDX 10 1 11 2 12 3 23 4 24 5 25 6 3 8 2 9 1 10 4 11 5 12 9 13
REMARK SMILES IDX 6 14 8 15 7 16 13 17 14 18 22 19 15 20 18 21 16 22 19 23
REMARK SMILES IDX 20 24 21 25 17 26
REMARK H PARENT 11 7 17 27
ROOT
ATOM      1  C   UNL     1      24.575   0.031  53.419  1.00  0.00    +0.113 A 
ATOM      2  N   UNL     1      23.483   0.298  52.633  1.00  0.00    -0.341 N 
ATOM      3  C   UNL     1      22.335  -0.226  53.185  1.00  0.00    +0.048 A 
ATOM      4  C   UNL     1      22.727  -0.848  54.358  1.00  0.00    +0.034 A 
ATOM      5  C   UNL     1      24.134  -0.686  54.518  1.00  0.00    -0.008 A 
ATOM      6  C   UNL     1      24.942  -1.179  55.664  1.00  0.00    +0.048 C 
ATOM      7  H   UNL     1      23.543   0.757  51.737  1.00  0.00    +0.168 HD
ENDROOT
BRANCH   1   8
ATOM      8  N   UNL     1      25.814   0.461  53.027  1.00  0.00    -0.328 N 
BRANCH   8   9
ATOM      9  C   UNL     1      25.973   1.903  52.752  1.00  0.00    +0.121 C 
ATOM     10  C   UNL     1      26.367   2.164  51.303  1.00  0.00    +0.028 C 
ENDBRANCH   8   9
BRANCH   8  11
ATOM     11  C   UNL     1      26.973  -0.348  53.132  1.00  0.00    +0.042 A 
ATOM     12  C   UNL     1      28.134   0.153  53.754  1.00  0.00    +0.026 A 
ATOM     13  C   UNL     1      27.039  -1.671  52.661  1.00  0.00    +0.026 A 
ATOM     14  C   UNL     1      29.297  -0.613  53.890  1.00  0.00    +0.002 A 
ATOM     15  C   UNL     1      28.201  -2.443  52.792  1.00  0.00    +0.002 A 
ATOM     16  C   UNL     1      29.330  -1.914  53.406  1.00  0.00    +0.000 A 
ENDBRANCH   8  11
ENDBRANCH   1   8
BRANCH   3  17
ATOM     17  C   UNL     1      21.016  -0.114  52.559  1.00  0.00    +0.005 A 
ATOM     18  C   UNL     1      20.872   0.546  51.331  1.00  0.00    +0.014 A 
ATOM     19  C   UNL     1      19.879  -0.668  53.162  1.00  0.00    +0.100 A 
ATOM     20  C   UNL     1      19.621   0.659  50.717  1.00  0.00    +0.054 A 
ATOM     21  C   UNL     1      18.620  -0.555  52.544  1.00  0.00    +0.311 A 
ATOM     22  C   UNL     1      18.491   0.109  51.318  1.00  0.00    +0.194 A 
BRANCH  21  23
ATOM     23  N   UNL     1      17.457  -1.143  53.209  1.00  0.00    +0.066 N 
ATOM     24  O   UNL     1      17.596  -2.268  53.717  1.00  0.00    -0.258 OA
ATOM     25  O   UNL     1      16.403  -0.493  53.225  1.00  0.00    -0.258 OA
ENDBRANCH  21  23
BRANCH  22  26
ATOM     26  O   UNL     1      17.323   0.280  50.628  1.00  0.00    -0.502 OA
ATOM     27  H   UNL     1      17.512   0.604  49.722  1.00  0.00    +0.293 HD
ENDBRANCH  22  26
ENDBRANCH   3  17
TORSDOF 6
ENDMDL
MODEL 5
REMARK VINA RESULT:    -7.834      3.233      4.805
REMARK INTER + INTRA:         -11.670
REMARK INTER:                 -10.447
REMARK INTRA:                  -1.223
REMARK UNBOUND:                -1.318
REMARK SMILES CCN(c1ccccc1)c1[nH]c(-c2ccc(O)c([N+](=O)[O-])c2)cc1C
REMARK SMILES IDX 10 1 11 2 12 3 23 4 24 5 25 6 3 8 2 9 1 10 4 11 5 12 9 13
REMARK SMILES IDX 6 14 8 15 7 16 13 17 14 18 22 19 15 20 18 21 16 22 19 23
REMARK SMILES IDX 20 24 21 25 17 26
REMARK H PARENT 11 7 17 27
ROOT
ATOM      1  C   UNL     1      22.444   1.111  52.418  1.00  0.00    +0.113 A 
ATOM      2  N   UNL     1      23.811   1.129  52.307  1.00  0.00    -0.341 N 
ATOM      3  C   UNL     1      24.388   0.183  53.127  1.00  0.00    +0.048 A 
ATOM      4  C   UNL     1      23.340  -0.444  53.778  1.00  0.00    +0.034 A 
ATOM      5  C   UNL     1      22.112   0.127  53.333  1.00  0.00    -0.008 A 
ATOM      6  C   UNL     1      20.752  -0.288  53.767  1.00  0.00    +0.048 C 
ATOM      7  H   UNL     1      24.313   1.800  51.747  1.00  0.00    +0.168 HD
ENDROOT
BRANCH   1   8
ATOM      8  N   UNL     1      21.693   1.991  51.688  1.00  0.00    -0.328 N 
BRANCH   8   9
ATOM      9  C   UNL     1      20.801   2.901  52.434  1.00  0.00    +0.121 C 
ATOM     10  C   UNL     1      19.376   2.868  51.895  1.00  0.00    +0.028 C 
ENDBRANCH   8   9
BRANCH   8  11
ATOM     11  C   UNL     1      21.927   2.238  50.312  1.00  0.00    +0.042 A 
ATOM     12  C   UNL     1      21.629   1.248  49.353  1.00  0.00    +0.026 A 
ATOM     13  C   UNL     1      22.433   3.452  49.817  1.00  0.00    +0.026 A 
ATOM     14  C   UNL     1      21.834   1.450  47.984  1.00  0.00    +0.002 A 
ATOM     15  C   UNL     1      22.642   3.662  48.448  1.00  0.00    +0.002 A 
ATOM     16  C   UNL     1      22.342   2.660  47.531  1.00  0.00    +0.000 A 
ENDBRANCH   8  11
ENDBRANCH   1   8
BRANCH   3  17
ATOM     17  C   UNL     1      25.834  -0.017  53.233  1.00  0.00    +0.005 A 
ATOM     18  C   UNL     1      26.387  -1.287  53.020  1.00  0.00    +0.014 A 
ATOM     19  C   UNL     1      26.693   1.048  53.537  1.00  0.00    +0.100 A 
ATOM     20  C   UNL     1      27.767  -1.496  53.113  1.00  0.00    +0.054 A 
ATOM     21  C   UNL     1      28.080   0.838  53.630  1.00  0.00    +0.311 A 
ATOM     22  C   UNL     1      28.619  -0.437  53.417  1.00  0.00    +0.194 A 
BRANCH  21  23
ATOM     23  N   UNL     1      28.941   1.976  53.955  1.00  0.00    +0.066 N 
ATOM     24  O   UNL     1      29.523   1.958  55.053  1.00  0.00    -0.258 OA
ATOM     25  O   UNL     1      29.038   2.891  53.127  1.00  0.00    -0.258 OA
ENDBRANCH  21  23
BRANCH  22  26
ATOM     26  O   UNL     1      29.947  -0.758  53.481  1.00  0.00    -0.502 OA
ATOM     27  H   UNL     1      30.056  -1.731  53.521  1.00  0.00    +0.293 HD
ENDBRANCH  22  26
ENDBRANCH   3  17
TORSDOF 6
ENDMDL
MODEL 6
REMARK VINA RESULT:    -7.744      0.942      2.085
REMARK INTER + INTRA:         -11.551
REMARK INTER:                 -10.297
REMARK INTRA:                  -1.254
REMARK UNBOUND:                -1.318
REMARK SMILES CCN(c1ccccc1)c1[nH]c(-c2ccc(O)c([N+](=O)[O-])c2)cc1C
REMARK SMILES IDX 10 1 11 2 12 3 23 4 24 5 25 6 3 8 2 9 1 10 4 11 5 12 9 13
REMARK SMILES IDX 6 14 8 15 7 16 13 17 14 18 22 19 15 20 18 21 16 22 19 23
REMARK SMILES IDX 20 24 21 25 17 26
REMARK H PARENT 11 7 17 27
ROOT
ATOM      1  C   UNL     1      22.640   3.375  50.305  1.00  0.00    +0.113 A 
ATOM      2  N   UNL     1      22.991   2.238  50.988  1.00  0.00    -0.341 N 
ATOM      3  C   UNL     1      22.283   2.128  52.165  1.00  0.00    +0.048 A 
ATOM      4  C   UNL     1      21.463   3.242  52.220  1.00  0.00    +0.034 A 
ATOM      5  C   UNL     1      21.674   4.029  51.051  1.00  0.00    -0.008 A 
ATOM      6  C   UNL     1      20.966   5.290  50.711  1.00  0.00    +0.048 C 
ATOM      7  H   UNL     1      23.724   1.614  50.687  1.00  0.00    +0.168 HD
ENDROOT
BRANCH   1   8
ATOM      8  N   UNL     1      23.248   3.665  49.114  1.00  0.00    -0.328 N 
BRANCH   8   9
ATOM      9  C   UNL     1      22.426   3.558  47.892  1.00  0.00    +0.121 C 
ATOM     10  C   UNL     1      22.136   2.106  47.529  1.00  0.00    +0.028 C 
ENDBRANCH   8   9
BRANCH   8  11
ATOM     11  C   UNL     1      24.513   4.300  49.036  1.00  0.00    +0.042 A 
ATOM     12  C   UNL     1      24.600   5.670  48.718  1.00  0.00    +0.026 A 
ATOM     13  C   UNL     1      25.728   3.639  49.284  1.00  0.00    +0.026 A 
ATOM     14  C   UNL     1      25.825   6.341  48.641  1.00  0.00    +0.002 A 
ATOM     15  C   UNL     1      26.959   4.304  49.207  1.00  0.00    +0.002 A 
ATOM     16  C   UNL     1      27.007   5.655  48.885  1.00  0.00    +0.000 A 
ENDBRANCH   8  11
ENDBRANCH   1   8
BRANCH   3  17
ATOM     17  C   UNL     1      22.459   1.025  53.112  1.00  0.00    +0.005 A 
ATOM     18  C   UNL     1      21.342   0.398  53.680  1.00  0.00    +0.014 A 
ATOM     19  C   UNL     1      23.737   0.567  53.461  1.00  0.00    +0.100 A 
ATOM     20  C   UNL     1      21.491  -0.660  54.582  1.00  0.00    +0.054 A 
ATOM     21  C   UNL     1      23.887  -0.497  54.368  1.00  0.00    +0.311 A 
ATOM     22  C   UNL     1      22.762  -1.112  54.930  1.00  0.00    +0.194 A 
BRANCH  21  23
ATOM     23  N   UNL     1      25.239  -0.941  54.711  1.00  0.00    +0.066 N 
ATOM     24  O   UNL     1      26.024  -1.159  53.774  1.00  0.00    -0.258 OA
ATOM     25  O   UNL     1      25.523  -1.079  55.908  1.00  0.00    -0.258 OA
ENDBRANCH  21  23
BRANCH  22  26
ATOM     26  O   UNL     1      22.787  -2.151  55.819  1.00  0.00    -0.502 OA
ATOM     27  H   UNL     1      22.240  -1.935  56.603  1.00  0.00    +0.293 HD
ENDBRANCH  22  26
ENDBRANCH   3  17
TORSDOF 6
ENDMDL
MODEL 7
REMARK VINA RESULT:    -7.658      1.739      3.100
REMARK INTER + INTRA:         -11.438
REMARK INTER:                 -10.138
REMARK INTRA:                  -1.300
REMARK UNBOUND:                -1.318
REMARK SMILES CCN(c1ccccc1)c1[nH]c(-c2ccc(O)c([N+](=O)[O-])c2)cc1C
REMARK SMILES IDX 10 1 11 2 12 3 23 4 24 5 25 6 3 8 2 9 1 10 4 11 5 12 9 13
REMARK SMILES IDX 6 14 8 15 7 16 13 17 14 18 22 19 15 20 18 21 16 22 19 23
REMARK SMILES IDX 20 24 21 25 17 26
REMARK H PARENT 11 7 17 27
ROOT
ATOM      1  C   UNL     1      24.651   3.605  50.044  1.00  0.00    +0.113 A 
ATOM      2  N   UNL     1      24.298   2.750  51.058  1.00  0.00    -0.341 N 
ATOM      3  C   UNL     1      25.411   2.185  51.641  1.00  0.00    +0.048 A 
ATOM      4  C   UNL     1      26.500   2.704  50.961  1.00  0.00    +0.034 A 
ATOM      5  C   UNL     1      26.032   3.605  49.959  1.00  0.00    -0.008 A 
ATOM      6  C   UNL     1      26.885   4.394  49.033  1.00  0.00    +0.048 C 
ATOM      7  H   UNL     1      23.342   2.524  51.285  1.00  0.00    +0.168 HD
ENDROOT
BRANCH   1   8
ATOM      8  N   UNL     1      23.677   4.254  49.335  1.00  0.00    -0.328 N 
BRANCH   8   9
ATOM      9  C   UNL     1      22.480   3.475  48.960  1.00  0.00    +0.121 C 
ATOM     10  C   UNL     1      22.753   2.547  47.782  1.00  0.00    +0.028 C 
ENDBRANCH   8   9
BRANCH   8  11
ATOM     11  C   UNL     1      23.652   5.663  49.184  1.00  0.00    +0.042 A 
ATOM     12  C   UNL     1      23.713   6.499  50.317  1.00  0.00    +0.026 A 
ATOM     13  C   UNL     1      23.592   6.307  47.936  1.00  0.00    +0.026 A 
ATOM     14  C   UNL     1      23.703   7.894  50.216  1.00  0.00    +0.002 A 
ATOM     15  C   UNL     1      23.580   7.704  47.827  1.00  0.00    +0.002 A 
ATOM     16  C   UNL     1      23.635   8.498  48.967  1.00  0.00    +0.000 A 
ENDBRANCH   8  11
ENDBRANCH   1   8
BRANCH   3  17
ATOM     17  C   UNL     1      25.344   1.218  52.738  1.00  0.00    +0.005 A 
ATOM     18  C   UNL     1      24.193   0.439  52.921  1.00  0.00    +0.014 A 
ATOM     19  C   UNL     1      26.422   1.042  53.616  1.00  0.00    +0.100 A 
ATOM     20  C   UNL     1      24.113  -0.492  53.961  1.00  0.00    +0.054 A 
ATOM     21  C   UNL     1      26.341   0.105  54.661  1.00  0.00    +0.311 A 
ATOM     22  C   UNL     1      25.184  -0.665  54.834  1.00  0.00    +0.194 A 
BRANCH  21  23
ATOM     23  N   UNL     1      27.487  -0.044  55.559  1.00  0.00    +0.066 N 
ATOM     24  O   UNL     1      28.613  -0.131  55.041  1.00  0.00    -0.258 OA
ATOM     25  O   UNL     1      27.273  -0.081  56.778  1.00  0.00    -0.258 OA
ENDBRANCH  21  23
BRANCH  22  26
ATOM     26  O   UNL     1      24.995  -1.603  55.811  1.00  0.00    -0.502 OA
ATOM     27  H   UNL     1      24.878  -1.164  56.680  1.00  0.00    +0.293 HD
ENDBRANCH  22  26
ENDBRANCH   3  17
TORSDOF 6
ENDMDL
MODEL 8
REMARK VINA RESULT:    -7.611      1.412      2.231
REMARK INTER + INTRA:         -11.376
REMARK INTER:                 -10.191
REMARK INTRA:                  -1.185
REMARK UNBOUND:                -1.318
REMARK SMILES CCN(c1ccccc1)c1[nH]c(-c2ccc(O)c([N+](=O)[O-])c2)cc1C
REMARK SMILES IDX 10 1 11 2 12 3 23 4 24 5 25 6 3 8 2 9 1 10 4 11 5 12 9 13
REMARK SMILES IDX 6 14 8 15 7 16 13 17 14 18 22 19 15 20 18 21 16 22 19 23
REMARK SMILES IDX 20 24 21 25 17 26
REMARK H PARENT 11 7 17 27
ROOT
ATOM      1  C   UNL     1      24.388   4.397  50.317  1.00  0.00    +0.113 A 
ATOM      2  N   UNL     1      24.808   3.646  51.385  1.00  0.00    -0.341 N 
ATOM      3  C   UNL     1      24.211   2.404  51.384  1.00  0.00    +0.048 A 
ATOM      4  C   UNL     1      23.382   2.383  50.275  1.00  0.00    +0.034 A 
ATOM      5  C   UNL     1      23.492   3.629  49.592  1.00  0.00    -0.008 A 
ATOM      6  C   UNL     1      22.789   3.998  48.337  1.00  0.00    +0.048 C 
ATOM      7  H   UNL     1      25.420   3.998  52.105  1.00  0.00    +0.168 HD
ENDROOT
BRANCH   1   8
ATOM      8  N   UNL     1      24.863   5.670  50.154  1.00  0.00    -0.328 N 
BRANCH   8   9
ATOM      9  C   UNL     1      24.260   6.729  50.988  1.00  0.00    +0.121 C 
ATOM     10  C   UNL     1      22.795   6.960  50.639  1.00  0.00    +0.028 C 
ENDBRANCH   8   9
BRANCH   8  11
ATOM     11  C   UNL     1      26.052   5.956  49.438  1.00  0.00    +0.042 A 
ATOM     12  C   UNL     1      26.947   4.918  49.105  1.00  0.00    +0.026 A 
ATOM     13  C   UNL     1      26.402   7.245  49.000  1.00  0.00    +0.026 A 
ATOM     14  C   UNL     1      28.126   5.152  48.389  1.00  0.00    +0.002 A 
ATOM     15  C   UNL     1      27.582   7.487  48.285  1.00  0.00    +0.002 A 
ATOM     16  C   UNL     1      28.444   6.440  47.980  1.00  0.00    +0.000 A 
ENDBRANCH   8  11
ENDBRANCH   1   8
BRANCH   3  17
ATOM     17  C   UNL     1      24.453   1.392  52.413  1.00  0.00    +0.005 A 
ATOM     18  C   UNL     1      25.739   1.218  52.942  1.00  0.00    +0.014 A 
ATOM     19  C   UNL     1      23.413   0.588  52.898  1.00  0.00    +0.100 A 
ATOM     20  C   UNL     1      25.988   0.260  53.929  1.00  0.00    +0.054 A 
ATOM     21  C   UNL     1      23.663  -0.376  53.891  1.00  0.00    +0.311 A 
ATOM     22  C   UNL     1      24.954  -0.540  54.409  1.00  0.00    +0.194 A 
BRANCH  21  23
ATOM     23  N   UNL     1      22.550  -1.200  54.365  1.00  0.00    +0.066 N 
ATOM     24  O   UNL     1      22.612  -1.631  55.528  1.00  0.00    -0.258 OA
ATOM     25  O   UNL     1      21.616  -1.425  53.584  1.00  0.00    -0.258 OA
ENDBRANCH  21  23
BRANCH  22  26
ATOM     26  O   UNL     1      25.313  -1.442  55.373  1.00  0.00    -0.502 OA
ATOM     27  H   UNL     1      24.525  -1.716  55.887  1.00  0.00    +0.293 HD
ENDBRANCH  22  26
ENDBRANCH   3  17
TORSDOF 6
ENDMDL
MODEL 9
REMARK VINA RESULT:    -7.518      3.697      6.202
REMARK INTER + INTRA:         -11.253
REMARK INTER:                  -9.966
REMARK INTRA:                  -1.287
REMARK UNBOUND:                -1.318
REMARK SMILES CCN(c1ccccc1)c1[nH]c(-c2ccc(O)c([N+](=O)[O-])c2)cc1C
REMARK SMILES IDX 10 1 11 2 12 3 23 4 24 5 25 6 3 8 2 9 1 10 4 11 5 12 9 13
REMARK SMILES IDX 6 14 8 15 7 16 13 17 14 18 22 19 15 20 18 21 16 22 19 23
REMARK SMILES IDX 20 24 21 25 17 26
REMARK H PARENT 11 7 17 27
ROOT
ATOM      1  C   UNL     1      22.058   1.447  51.537  1.00  0.00    +0.113 A 
ATOM      2  N   UNL     1      23.154   0.659  51.783  1.00  0.00    -0.341 N 
ATOM      3  C   UNL     1      24.124   1.358  52.467  1.00  0.00    +0.048 A 
ATOM      4  C   UNL     1      23.617   2.633  52.649  1.00  0.00    +0.034 A 
ATOM      5  C   UNL     1      22.314   2.697  52.074  1.00  0.00    -0.008 A 
ATOM      6  C   UNL     1      21.416   3.881  52.084  1.00  0.00    +0.048 C 
ATOM      7  H   UNL     1      23.247  -0.284  51.440  1.00  0.00    +0.168 HD
ENDROOT
BRANCH   1   8
ATOM      8  N   UNL     1      20.991   0.931  50.854  1.00  0.00    -0.328 N 
BRANCH   8   9
ATOM      9  C   UNL     1      21.139   0.764  49.394  1.00  0.00    +0.121 C 
ATOM     10  C   UNL     1      20.925   2.075  48.648  1.00  0.00    +0.028 C 
ENDBRANCH   8   9
BRANCH   8  11
ATOM     11  C   UNL     1      19.889   0.323  51.505  1.00  0.00    +0.042 A 
ATOM     12  C   UNL     1      18.629   0.276  50.873  1.00  0.00    +0.026 A 
ATOM     13  C   UNL     1      19.973  -0.278  52.773  1.00  0.00    +0.026 A 
ATOM     14  C   UNL     1      17.516  -0.323  51.473  1.00  0.00    +0.002 A 
ATOM     15  C   UNL     1      18.862  -0.878  53.380  1.00  0.00    +0.002 A 
ATOM     16  C   UNL     1      17.634  -0.900  52.730  1.00  0.00    +0.000 A 
ENDBRANCH   8  11
ENDBRANCH   1   8
BRANCH   3  17
ATOM     17  C   UNL     1      25.413   0.780  52.853  1.00  0.00    +0.005 A 
ATOM     18  C   UNL     1      25.593  -0.610  52.845  1.00  0.00    +0.014 A 
ATOM     19  C   UNL     1      26.491   1.595  53.224  1.00  0.00    +0.100 A 
ATOM     20  C   UNL     1      26.818  -1.179  53.206  1.00  0.00    +0.054 A 
ATOM     21  C   UNL     1      27.723   1.022  53.587  1.00  0.00    +0.311 A 
ATOM     22  C   UNL     1      27.887  -0.368  53.577  1.00  0.00    +0.194 A 
BRANCH  21  23
ATOM     23  N   UNL     1      28.822   1.909  53.973  1.00  0.00    +0.066 N 
ATOM     24  O   UNL     1      29.369   1.698  55.068  1.00  0.00    -0.258 OA
ATOM     25  O   UNL     1      29.139   2.819  53.196  1.00  0.00    -0.258 OA
ENDBRANCH  21  23
BRANCH  22  26
ATOM     26  O   UNL     1      29.036  -1.033  53.909  1.00  0.00    -0.502 OA
ATOM     27  H   UNL     1      29.764  -0.393  54.055  1.00  0.00    +0.293 HD
ENDBRANCH  22  26
ENDBRANCH   3  17
TORSDOF 6
ENDMDL
