MODEL 1
REMARK VINA RESULT:    -8.013      0.000      0.000
REMARK INTER + INTRA:         -10.345
REMARK INTER:                  -9.652
REMARK INTRA:                  -0.693
REMARK UNBOUND:                -0.693
REMARK SMILES O=[N+]([O-])c1cc(-c2ccc(-c3ccccn3)[nH]2)ccc1O
REMARK SMILES IDX 4 1 5 2 6 3 18 4 19 5 20 6 2 7 1 8 3 9 21 10 7 12 8 13 17 14
REMARK SMILES IDX 9 15 10 16 11 18 12 19 16 20 13 21 15 22 14 23
REMARK H PARENT 21 11 17 17
ROOT
ATOM      1  C   UNL     1      24.177  -0.589  54.323  1.00  0.00    +0.311 A 
ATOM      2  C   UNL     1      24.254   0.254  53.201  1.00  0.00    +0.100 A 
ATOM      3  C   UNL     1      23.101   0.574  52.471  1.00  0.00    +0.005 A 
ATOM      4  C   UNL     1      21.872   0.041  52.889  1.00  0.00    +0.014 A 
ATOM      5  C   UNL     1      21.796  -0.798  54.004  1.00  0.00    +0.054 A 
ATOM      6  C   UNL     1      22.944  -1.117  54.725  1.00  0.00    +0.194 A 
ENDROOT
BRANCH   1   7
ATOM      7  N   UNL     1      25.405  -0.898  55.056  1.00  0.00    +0.066 N 
ATOM      8  O   UNL     1      26.470  -0.891  54.416  1.00  0.00    -0.258 OA
ATOM      9  O   UNL     1      25.320  -1.150  56.266  1.00  0.00    -0.258 OA
ENDBRANCH   1   7
BRANCH   6  10
ATOM     10  O   UNL     1      22.747  -1.946  55.795  1.00  0.00    -0.502 OA
ATOM     11  H   UNL     1      23.585  -2.049  56.296  1.00  0.00    +0.293 HD
ENDBRANCH   6  10
BRANCH   3  12
ATOM     12  C   UNL     1      23.187   1.453  51.303  1.00  0.00    +0.046 A 
ATOM     13  C   UNL     1      22.305   1.651  50.253  1.00  0.00    +0.029 A 
ATOM     14  N   UNL     1      24.247   2.301  51.071  1.00  0.00    -0.353 N 
ATOM     15  C   UNL     1      22.860   2.622  49.383  1.00  0.00    +0.030 A 
ATOM     16  C   UNL     1      24.076   3.019  49.908  1.00  0.00    +0.065 A 
ATOM     17  H   UNL     1      25.057   2.422  51.664  1.00  0.00    +0.167 HD
BRANCH  16  18
ATOM     18  C   UNL     1      25.083   3.977  49.465  1.00  0.00    +0.086 A 
ATOM     19  C   UNL     1      26.434   3.666  49.379  1.00  0.00    +0.030 A 
ATOM     20  N   UNL     1      24.581   5.196  49.145  1.00  0.00    -0.255 NA
ATOM     21  C   UNL     1      27.317   4.651  48.944  1.00  0.00    +0.004 A 
ATOM     22  C   UNL     1      25.464   6.131  48.726  1.00  0.00    +0.112 A 
ATOM     23  C   UNL     1      26.825   5.908  48.610  1.00  0.00    +0.020 A 
ENDBRANCH  16  18
ENDBRANCH   3  12
TORSDOF 4
ENDMDL
MODEL 2
REMARK VINA RESULT:    -7.997      3.655      6.555
REMARK INTER + INTRA:         -10.326
REMARK INTER:                  -9.640
REMARK INTRA:                  -0.687
REMARK UNBOUND:                -0.693
REMARK SMILES O=[N+]([O-])c1cc(-c2ccc(-c3ccccn3)[nH]2)ccc1O
REMARK SMILES IDX 4 1 5 2 6 3 18 4 19 5 20 6 2 7 1 8 3 9 21 10 7 12 8 13 17 14
REMARK SMILES IDX 9 15 10 16 11 18 12 19 16 20 13 21 15 22 14 23
REMARK H PARENT 21 11 17 17
ROOT
ATOM      1  C   UNL     1      26.902   0.392  54.193  1.00  0.00    +0.311 A 
ATOM      2  C   UNL     1      25.619  -0.121  54.449  1.00  0.00    +0.100 A 
ATOM      3  C   UNL     1      24.555   0.160  53.581  1.00  0.00    +0.005 A 
ATOM      4  C   UNL     1      24.800   0.957  52.453  1.00  0.00    +0.014 A 
ATOM      5  C   UNL     1      26.076   1.469  52.199  1.00  0.00    +0.054 A 
ATOM      6  C   UNL     1      27.131   1.190  53.065  1.00  0.00    +0.194 A 
ENDROOT
BRANCH   1   7
ATOM      7  N   UNL     1      27.985   0.074  55.124  1.00  0.00    +0.066 N 
ATOM      8  O   UNL     1      27.707   0.047  56.335  1.00  0.00    -0.258 OA
ATOM      9  O   UNL     1      29.112  -0.148  54.662  1.00  0.00    -0.258 OA
ENDBRANCH   1   7
BRANCH   6  10
ATOM     10  O   UNL     1      28.332   1.744  52.716  1.00  0.00    -0.502 OA
ATOM     11  H   UNL     1      28.588   2.426  53.374  1.00  0.00    +0.293 HD
ENDBRANCH   6  10
BRANCH   3  12
ATOM     12  C   UNL     1      23.219  -0.377  53.852  1.00  0.00    +0.046 A 
ATOM     13  C   UNL     1      22.766  -1.209  54.862  1.00  0.00    +0.029 A 
ATOM     14  N   UNL     1      22.117  -0.087  53.078  1.00  0.00    -0.353 N 
ATOM     15  C   UNL     1      21.378  -1.423  54.673  1.00  0.00    +0.030 A 
ATOM     16  C   UNL     1      20.987  -0.715  53.552  1.00  0.00    +0.065 A 
ATOM     17  H   UNL     1      22.096   0.518  52.268  1.00  0.00    +0.167 HD
BRANCH  16  18
ATOM     18  C   UNL     1      19.702  -0.550  52.881  1.00  0.00    +0.086 A 
ATOM     19  C   UNL     1      19.537   0.237  51.749  1.00  0.00    +0.030 A 
ATOM     20  N   UNL     1      18.684  -1.235  53.463  1.00  0.00    -0.255 NA
ATOM     21  C   UNL     1      18.269   0.329  51.181  1.00  0.00    +0.004 A 
ATOM     22  C   UNL     1      17.466  -1.124  52.888  1.00  0.00    +0.112 A 
ATOM     23  C   UNL     1      17.211  -0.363  51.760  1.00  0.00    +0.020 A 
ENDBRANCH  16  18
ENDBRANCH   3  12
TORSDOF 4
ENDMDL
MODEL 3
REMARK VINA RESULT:    -7.985      4.150      5.926
REMARK INTER + INTRA:         -10.312
REMARK INTER:                  -9.608
REMARK INTRA:                  -0.704
REMARK UNBOUND:                -0.693
REMARK SMILES O=[N+]([O-])c1cc(-c2ccc(-c3ccccn3)[nH]2)ccc1O
REMARK SMILES IDX 4 1 5 2 6 3 18 4 19 5 20 6 2 7 1 8 3 9 21 10 7 12 8 13 17 14
REMARK SMILES IDX 9 15 10 16 11 18 12 19 16 20 13 21 15 22 14 23
REMARK H PARENT 21 11 17 17
ROOT
ATOM      1  C   UNL     1      20.226  -0.028  52.641  1.00  0.00    +0.311 A 
ATOM      2  C   UNL     1      21.556   0.354  52.392  1.00  0.00    +0.100 A 
ATOM      3  C   UNL     1      22.609  -0.224  53.113  1.00  0.00    +0.005 A 
ATOM      4  C   UNL     1      22.308  -1.193  54.082  1.00  0.00    +0.014 A 
ATOM      5  C   UNL     1      20.985  -1.571  54.332  1.00  0.00    +0.054 A 
ATOM      6  C   UNL     1      19.940  -0.992  53.615  1.00  0.00    +0.194 A 
ENDROOT
BRANCH   1   7
ATOM      7  N   UNL     1      19.157   0.601  51.865  1.00  0.00    +0.066 N 
ATOM      8  O   UNL     1      19.047   1.837  51.941  1.00  0.00    -0.258 OA
ATOM      9  O   UNL     1      18.423  -0.124  51.181  1.00  0.00    -0.258 OA
ENDBRANCH   1   7
BRANCH   6  10
ATOM     10  O   UNL     1      18.691  -1.440  53.945  1.00  0.00    -0.502 OA
ATOM     11  H   UNL     1      18.512  -2.292  53.493  1.00  0.00    +0.293 HD
ENDBRANCH   6  10
BRANCH   3  12
ATOM     12  C   UNL     1      23.993   0.176  52.849  1.00  0.00    +0.046 A 
ATOM     13  C   UNL     1      24.508   1.323  52.267  1.00  0.00    +0.029 A 
ATOM     14  N   UNL     1      25.081  -0.594  53.192  1.00  0.00    -0.353 N 
ATOM     15  C   UNL     1      25.921   1.221  52.256  1.00  0.00    +0.030 A 
ATOM     16  C   UNL     1      26.265   0.014  52.838  1.00  0.00    +0.065 A 
ATOM     17  H   UNL     1      25.057  -1.490  53.661  1.00  0.00    +0.167 HD
BRANCH  16  18
ATOM     18  C   UNL     1      27.547  -0.629  53.105  1.00  0.00    +0.086 A 
ATOM     19  C   UNL     1      28.680   0.077  53.490  1.00  0.00    +0.030 A 
ATOM     20  N   UNL     1      27.532  -1.977  52.943  1.00  0.00    -0.255 NA
ATOM     21  C   UNL     1      29.857  -0.631  53.721  1.00  0.00    +0.004 A 
ATOM     22  C   UNL     1      28.690  -2.633  53.175  1.00  0.00    +0.112 A 
ATOM     23  C   UNL     1      29.865  -2.011  53.562  1.00  0.00    +0.020 A 
ENDBRANCH  16  18
ENDBRANCH   3  12
TORSDOF 4
ENDMDL
MODEL 4
REMARK VINA RESULT:    -7.784      2.161      3.046
REMARK INTER + INTRA:         -10.070
REMARK INTER:                  -9.319
REMARK INTRA:                  -0.751
REMARK UNBOUND:                -0.693
REMARK SMILES O=[N+]([O-])c1cc(-c2ccc(-c3ccccn3)[nH]2)ccc1O
REMARK SMILES IDX 4 1 5 2 6 3 18 4 19 5 20 6 2 7 1 8 3 9 21 10 7 12 8 13 17 14
REMARK SMILES IDX 9 15 10 16 11 18 12 19 16 20 13 21 15 22 14 23
REMARK H PARENT 21 11 17 17
ROOT
ATOM      1  C   UNL     1      26.895   0.798  53.787  1.00  0.00    +0.311 A 
ATOM      2  C   UNL     1      26.792   1.700  52.713  1.00  0.00    +0.100 A 
ATOM      3  C   UNL     1      25.575   1.865  52.039  1.00  0.00    +0.005 A 
ATOM      4  C   UNL     1      24.465   1.118  52.460  1.00  0.00    +0.014 A 
ATOM      5  C   UNL     1      24.569   0.220  53.527  1.00  0.00    +0.054 A 
ATOM      6  C   UNL     1      25.781   0.055  54.194  1.00  0.00    +0.194 A 
ENDROOT
BRANCH   1   7
ATOM      7  N   UNL     1      28.185   0.656  54.464  1.00  0.00    +0.066 N 
ATOM      8  O   UNL     1      28.847   1.690  54.655  1.00  0.00    -0.258 OA
ATOM      9  O   UNL     1      28.547  -0.477  54.806  1.00  0.00    -0.258 OA
ENDBRANCH   1   7
BRANCH   6  10
ATOM     10  O   UNL     1      25.762  -0.850  55.219  1.00  0.00    -0.502 OA
ATOM     11  H   UNL     1      24.900  -1.318  55.236  1.00  0.00    +0.293 HD
ENDBRANCH   6  10
BRANCH   3  12
ATOM     12  C   UNL     1      25.472   2.806  50.921  1.00  0.00    +0.046 A 
ATOM     13  C   UNL     1      24.392   3.151  50.125  1.00  0.00    +0.029 A 
ATOM     14  N   UNL     1      26.529   3.569  50.475  1.00  0.00    -0.353 N 
ATOM     15  C   UNL     1      24.823   4.122  49.187  1.00  0.00    +0.030 A 
ATOM     16  C   UNL     1      26.163   4.373  49.419  1.00  0.00    +0.065 A 
ATOM     17  H   UNL     1      27.464   3.578  50.859  1.00  0.00    +0.167 HD
BRANCH  16  18
ATOM     18  C   UNL     1      27.130   5.263  48.785  1.00  0.00    +0.086 A 
ATOM     19  C   UNL     1      26.819   6.559  48.393  1.00  0.00    +0.030 A 
ATOM     20  N   UNL     1      28.358   4.711  48.614  1.00  0.00    -0.255 NA
ATOM     21  C   UNL     1      27.813   7.330  47.797  1.00  0.00    +0.004 A 
ATOM     22  C   UNL     1      29.301   5.485  48.032  1.00  0.00    +0.112 A 
ATOM     23  C   UNL     1      29.079   6.785  47.611  1.00  0.00    +0.020 A 
ENDBRANCH  16  18
ENDBRANCH   3  12
TORSDOF 4
ENDMDL
MODEL 5
REMARK VINA RESULT:    -7.551      4.893      6.449
REMARK INTER + INTRA:          -9.789
REMARK INTER:                  -9.060
REMARK INTRA:                  -0.729
REMARK UNBOUND:                -0.693
REMARK SMILES O=[N+]([O-])c1cc(-c2ccc(-c3ccccn3)[nH]2)ccc1O
REMARK SMILES IDX 4 1 5 2 6 3 18 4 19 5 20 6 2 7 1 8 3 9 21 10 7 12 8 13 17 14
REMARK SMILES IDX 9 15 10 16 11 18 12 19 16 20 13 21 15 22 14 23
REMARK H PARENT 21 11 17 17
ROOT
ATOM      1  C   UNL     1      20.519   1.001  49.938  1.00  0.00    +0.311 A 
ATOM      2  C   UNL     1      21.494   0.644  50.886  1.00  0.00    +0.100 A 
ATOM      3  C   UNL     1      21.118   0.100  52.122  1.00  0.00    +0.005 A 
ATOM      4  C   UNL     1      19.753  -0.085  52.388  1.00  0.00    +0.014 A 
ATOM      5  C   UNL     1      18.784   0.271  51.445  1.00  0.00    +0.054 A 
ATOM      6  C   UNL     1      19.160   0.814  50.219  1.00  0.00    +0.194 A 
ENDROOT
BRANCH   1   7
ATOM      7  N   UNL     1      20.954   1.566  48.660  1.00  0.00    +0.066 N 
ATOM      8  O   UNL     1      20.389   2.602  48.271  1.00  0.00    -0.258 OA
ATOM      9  O   UNL     1      21.854   0.986  48.037  1.00  0.00    -0.258 OA
ENDBRANCH   1   7
BRANCH   6  10
ATOM     10  O   UNL     1      18.126   1.124  49.379  1.00  0.00    -0.502 OA
ATOM     11  H   UNL     1      17.362   0.536  49.559  1.00  0.00    +0.293 HD
ENDBRANCH   6  10
BRANCH   3  12
ATOM     12  C   UNL     1      22.138  -0.270  53.106  1.00  0.00    +0.046 A 
ATOM     13  C   UNL     1      22.017  -0.828  54.367  1.00  0.00    +0.029 A 
ATOM     14  N   UNL     1      23.489  -0.118  52.888  1.00  0.00    -0.353 N 
ATOM     15  C   UNL     1      23.317  -0.997  54.906  1.00  0.00    +0.030 A 
ATOM     16  C   UNL     1      24.228  -0.548  53.968  1.00  0.00    +0.065 A 
ATOM     17  H   UNL     1      23.924   0.242  52.048  1.00  0.00    +0.167 HD
BRANCH  16  18
ATOM     18  C   UNL     1      25.685  -0.475  53.955  1.00  0.00    +0.086 A 
ATOM     19  C   UNL     1      26.447  -0.801  52.841  1.00  0.00    +0.030 A 
ATOM     20  N   UNL     1      26.227  -0.061  55.129  1.00  0.00    -0.255 NA
ATOM     21  C   UNL     1      27.833  -0.698  52.930  1.00  0.00    +0.004 A 
ATOM     22  C   UNL     1      27.574   0.028  55.183  1.00  0.00    +0.112 A 
ATOM     23  C   UNL     1      28.410  -0.276  54.122  1.00  0.00    +0.020 A 
ENDBRANCH  16  18
ENDBRANCH   3  12
TORSDOF 4
ENDMDL
MODEL 6
REMARK VINA RESULT:    -7.508      3.172      5.939
REMARK INTER + INTRA:          -9.737
REMARK INTER:                  -8.990
REMARK INTRA:                  -0.747
REMARK UNBOUND:                -0.693
REMARK SMILES O=[N+]([O-])c1cc(-c2ccc(-c3ccccn3)[nH]2)ccc1O
REMARK SMILES IDX 4 1 5 2 6 3 18 4 19 5 20 6 2 7 1 8 3 9 21 10 7 12 8 13 17 14
REMARK SMILES IDX 9 15 10 16 11 18 12 19 16 20 13 21 15 22 14 23
REMARK H PARENT 21 11 17 17
ROOT
ATOM      1  C   UNL     1      26.537   0.099  54.784  1.00  0.00    +0.311 A 
ATOM      2  C   UNL     1      25.292   0.350  54.179  1.00  0.00    +0.100 A 
ATOM      3  C   UNL     1      25.212   0.633  52.809  1.00  0.00    +0.005 A 
ATOM      4  C   UNL     1      26.396   0.655  52.057  1.00  0.00    +0.014 A 
ATOM      5  C   UNL     1      27.634   0.407  52.659  1.00  0.00    +0.054 A 
ATOM      6  C   UNL     1      27.711   0.130  54.022  1.00  0.00    +0.194 A 
ENDROOT
BRANCH   1   7
ATOM      7  N   UNL     1      26.575  -0.192  56.218  1.00  0.00    +0.066 N 
ATOM      8  O   UNL     1      25.647  -0.871  56.689  1.00  0.00    -0.258 OA
ATOM      9  O   UNL     1      27.522   0.251  56.882  1.00  0.00    -0.258 OA
ENDBRANCH   1   7
BRANCH   6  10
ATOM     10  O   UNL     1      28.972  -0.095  54.499  1.00  0.00    -0.502 OA
ATOM     11  H   UNL     1      29.629   0.042  53.783  1.00  0.00    +0.293 HD
ENDBRANCH   6  10
BRANCH   3  12
ATOM     12  C   UNL     1      23.914   0.893  52.184  1.00  0.00    +0.046 A 
ATOM     13  C   UNL     1      23.567   1.720  51.128  1.00  0.00    +0.029 A 
ATOM     14  N   UNL     1      22.747   0.278  52.581  1.00  0.00    -0.353 N 
ATOM     15  C   UNL     1      22.172   1.600  50.908  1.00  0.00    +0.030 A 
ATOM     16  C   UNL     1      21.673   0.694  51.826  1.00  0.00    +0.065 A 
ATOM     17  H   UNL     1      22.653  -0.409  53.317  1.00  0.00    +0.167 HD
BRANCH  16  18
ATOM     18  C   UNL     1      20.334   0.173  52.078  1.00  0.00    +0.086 A 
ATOM     19  C   UNL     1      19.273   0.364  51.202  1.00  0.00    +0.030 A 
ATOM     20  N   UNL     1      20.219  -0.513  53.244  1.00  0.00    -0.255 NA
ATOM     21  C   UNL     1      18.032  -0.174  51.534  1.00  0.00    +0.004 A 
ATOM     22  C   UNL     1      19.002  -1.022  53.536  1.00  0.00    +0.112 A 
ATOM     23  C   UNL     1      17.891  -0.881  52.722  1.00  0.00    +0.020 A 
ENDBRANCH  16  18
ENDBRANCH   3  12
TORSDOF 4
ENDMDL
MODEL 7
REMARK VINA RESULT:    -7.182      2.994      3.987
REMARK INTER + INTRA:          -9.345
REMARK INTER:                  -8.619
REMARK INTRA:                  -0.727
REMARK UNBOUND:                -0.693
REMARK SMILES O=[N+]([O-])c1cc(-c2ccc(-c3ccccn3)[nH]2)ccc1O
REMARK SMILES IDX 4 1 5 2 6 3 18 4 19 5 20 6 2 7 1 8 3 9 21 10 7 12 8 13 17 14
REMARK SMILES IDX 9 15 10 16 11 18 12 19 16 20 13 21 15 22 14 23
REMARK H PARENT 21 11 17 17
ROOT
ATOM      1  C   UNL     1      19.958  -0.024  52.437  1.00  0.00    +0.311 A 
ATOM      2  C   UNL     1      21.213   0.507  52.095  1.00  0.00    +0.100 A 
ATOM      3  C   UNL     1      22.349   0.194  52.854  1.00  0.00    +0.005 A 
ATOM      4  C   UNL     1      22.206  -0.663  53.956  1.00  0.00    +0.014 A 
ATOM      5  C   UNL     1      20.957  -1.190  54.297  1.00  0.00    +0.054 A 
ATOM      6  C   UNL     1      19.829  -0.874  53.542  1.00  0.00    +0.194 A 
ENDROOT
BRANCH   1   7
ATOM      7  N   UNL     1      18.798   0.329  51.618  1.00  0.00    +0.066 N 
ATOM      8  O   UNL     1      17.897  -0.520  51.508  1.00  0.00    -0.258 OA
ATOM      9  O   UNL     1      18.775   1.444  51.081  1.00  0.00    -0.258 OA
ENDBRANCH   1   7
BRANCH   6  10
ATOM     10  O   UNL     1      18.663  -1.448  53.971  1.00  0.00    -0.502 OA
ATOM     11  H   UNL     1      18.185  -0.828  54.563  1.00  0.00    +0.293 HD
ENDBRANCH   6  10
BRANCH   3  12
ATOM     12  C   UNL     1      23.655   0.750  52.494  1.00  0.00    +0.046 A 
ATOM     13  C   UNL     1      24.935   0.347  52.835  1.00  0.00    +0.029 A 
ATOM     14  N   UNL     1      23.810   1.843  51.670  1.00  0.00    -0.353 N 
ATOM     15  C   UNL     1      25.859   1.224  52.213  1.00  0.00    +0.030 A 
ATOM     16  C   UNL     1      25.139   2.155  51.487  1.00  0.00    +0.065 A 
ATOM     17  H   UNL     1      23.068   2.365  51.223  1.00  0.00    +0.167 HD
BRANCH  16  18
ATOM     18  C   UNL     1      25.535   3.284  50.652  1.00  0.00    +0.086 A 
ATOM     19  C   UNL     1      26.607   3.231  49.770  1.00  0.00    +0.030 A 
ATOM     20  N   UNL     1      24.762   4.388  50.814  1.00  0.00    -0.255 NA
ATOM     21  C   UNL     1      26.904   4.363  49.016  1.00  0.00    +0.004 A 
ATOM     22  C   UNL     1      25.077   5.470  50.068  1.00  0.00    +0.112 A 
ATOM     23  C   UNL     1      26.126   5.505  49.165  1.00  0.00    +0.020 A 
ENDBRANCH  16  18
ENDBRANCH   3  12
TORSDOF 4
ENDMDL
MODEL 8
REMARK VINA RESULT:    -7.144      1.264      2.214
REMARK INTER + INTRA:          -9.298
REMARK INTER:                  -8.660
REMARK INTRA:                  -0.639
REMARK UNBOUND:                -0.693
REMARK SMILES O=[N+]([O-])c1cc(-c2ccc(-c3ccccn3)[nH]2)ccc1O
REMARK SMILES IDX 4 1 5 2 6 3 18 4 19 5 20 6 2 7 1 8 3 9 21 10 7 12 8 13 17 14
REMARK SMILES IDX 9 15 10 16 11 18 12 19 16 20 13 21 15 22 14 23
REMARK H PARENT 21 11 17 17
ROOT
ATOM      1  C   UNL     1      23.615  -0.504  53.946  1.00  0.00    +0.311 A 
ATOM      2  C   UNL     1      23.320   0.353  52.871  1.00  0.00    +0.100 A 
ATOM      3  C   UNL     1      24.338   1.081  52.242  1.00  0.00    +0.005 A 
ATOM      4  C   UNL     1      25.655   0.933  52.703  1.00  0.00    +0.014 A 
ATOM      5  C   UNL     1      25.948   0.082  53.773  1.00  0.00    +0.054 A 
ATOM      6  C   UNL     1      24.933  -0.638  54.399  1.00  0.00    +0.194 A 
ENDROOT
BRANCH   1   7
ATOM      7  N   UNL     1      22.521  -1.245  54.575  1.00  0.00    +0.066 N 
ATOM      8  O   UNL     1      21.502  -1.449  53.893  1.00  0.00    -0.258 OA
ATOM      9  O   UNL     1      22.666  -1.627  55.744  1.00  0.00    -0.258 OA
ENDBRANCH   1   7
BRANCH   6  10
ATOM     10  O   UNL     1      25.338  -1.437  55.433  1.00  0.00    -0.502 OA
ATOM     11  H   UNL     1      26.039  -0.983  55.950  1.00  0.00    +0.293 HD
ENDBRANCH   6  10
BRANCH   3  12
ATOM     12  C   UNL     1      24.026   1.972  51.122  1.00  0.00    +0.046 A 
ATOM     13  C   UNL     1      22.949   1.987  50.251  1.00  0.00    +0.029 A 
ATOM     14  N   UNL     1      24.824   3.033  50.755  1.00  0.00    -0.353 N 
ATOM     15  C   UNL     1      23.122   3.066  49.348  1.00  0.00    +0.030 A 
ATOM     16  C   UNL     1      24.300   3.711  49.676  1.00  0.00    +0.065 A 
ATOM     17  H   UNL     1      25.683   3.320  51.205  1.00  0.00    +0.167 HD
BRANCH  16  18
ATOM     18  C   UNL     1      24.986   4.870  49.116  1.00  0.00    +0.086 A 
ATOM     19  C   UNL     1      26.367   5.012  49.135  1.00  0.00    +0.030 A 
ATOM     20  N   UNL     1      24.153   5.795  48.574  1.00  0.00    -0.255 NA
ATOM     21  C   UNL     1      26.926   6.157  48.574  1.00  0.00    +0.004 A 
ATOM     22  C   UNL     1      24.727   6.895  48.037  1.00  0.00    +0.112 A 
ATOM     23  C   UNL     1      26.093   7.118  48.013  1.00  0.00    +0.020 A 
ENDBRANCH  16  18
ENDBRANCH   3  12
TORSDOF 4
ENDMDL
MODEL 9
REMARK VINA RESULT:    -7.128      3.724      7.236
REMARK INTER + INTRA:          -9.280
REMARK INTER:                  -8.530
REMARK INTRA:                  -0.750
REMARK UNBOUND:                -0.693
REMARK SMILES O=[N+]([O-])c1cc(-c2ccc(-c3ccccn3)[nH]2)ccc1O
REMARK SMILES IDX 4 1 5 2 6 3 18 4 19 5 20 6 2 7 1 8 3 9 21 10 7 12 8 13 17 14
REMARK SMILES IDX 9 15 10 16 11 18 12 19 16 20 13 21 15 22 14 23
REMARK H PARENT 21 11 17 17
ROOT
ATOM      1  C   UNL     1      24.831   2.812  51.807  1.00  0.00    +0.311 A 
ATOM      2  C   UNL     1      23.726   2.074  52.264  1.00  0.00    +0.100 A 
ATOM      3  C   UNL     1      23.903   0.797  52.814  1.00  0.00    +0.005 A 
ATOM      4  C   UNL     1      25.203   0.277  52.902  1.00  0.00    +0.014 A 
ATOM      5  C   UNL     1      26.302   1.011  52.446  1.00  0.00    +0.054 A 
ATOM      6  C   UNL     1      26.123   2.279  51.897  1.00  0.00    +0.194 A 
ENDROOT
BRANCH   1   7
ATOM      7  N   UNL     1      24.603   4.141  51.239  1.00  0.00    +0.066 N 
ATOM      8  O   UNL     1      25.292   4.471  50.259  1.00  0.00    -0.258 OA
ATOM      9  O   UNL     1      23.743   4.863  51.761  1.00  0.00    -0.258 OA
ENDBRANCH   1   7
BRANCH   6  10
ATOM     10  O   UNL     1      27.269   2.901  51.485  1.00  0.00    -0.502 OA
ATOM     11  H   UNL     1      27.360   2.821  50.511  1.00  0.00    +0.293 HD
ENDBRANCH   6  10
BRANCH   3  12
ATOM     12  C   UNL     1      22.749   0.031  53.289  1.00  0.00    +0.046 A 
ATOM     13  C   UNL     1      22.622  -0.850  54.351  1.00  0.00    +0.029 A 
ATOM     14  N   UNL     1      21.503   0.101  52.705  1.00  0.00    -0.353 N 
ATOM     15  C   UNL     1      21.284  -1.316  54.385  1.00  0.00    +0.030 A 
ATOM     16  C   UNL     1      20.596  -0.712  53.348  1.00  0.00    +0.065 A 
ATOM     17  H   UNL     1      21.244   0.676  51.915  1.00  0.00    +0.167 HD
BRANCH  16  18
ATOM     18  C   UNL     1      19.213  -0.797  52.893  1.00  0.00    +0.086 A 
ATOM     19  C   UNL     1      18.278  -1.646  53.473  1.00  0.00    +0.030 A 
ATOM     20  N   UNL     1      18.922   0.026  51.854  1.00  0.00    -0.255 NA
ATOM     21  C   UNL     1      16.982  -1.653  52.966  1.00  0.00    +0.004 A 
ATOM     22  C   UNL     1      17.655  -0.005  51.385  1.00  0.00    +0.112 A 
ATOM     23  C   UNL     1      16.661  -0.818  51.902  1.00  0.00    +0.020 A 
ENDBRANCH  16  18
ENDBRANCH   3  12
TORSDOF 4
ENDMDL
