REMARK SMILES N#CC(C#N)=C(C#N)C(N)=Cc1cccc(Cl)c1
REMARK SMILES IDX 9 1 11 2 6 3 1 4 2 5 3 6 4 7 5 8 7 9 8 10 10 11 12 14 13 15
REMARK SMILES IDX 18 16 14 17 16 18 15 19 17 20
REMARK H PARENT 10 12 10 13
ROOT
ATOM      1  C   UNL     1      -1.558  -1.071  -0.168  1.00  0.00    +0.052 C 
ATOM      2  C   UNL     1      -0.366  -1.422  -0.693  1.00  0.00    +0.035 C 
ENDROOT
BRANCH   1   3
ATOM      3  C   UNL     1      -1.705   0.100   0.706  1.00  0.00    +0.103 C 
ATOM      4  N   UNL     1      -2.111   3.375   1.820  1.00  0.00    -0.192 NA
ATOM      5  C   UNL     1      -2.001   2.470   1.103  1.00  0.00    +0.112 C 
ATOM      6  C   UNL     1      -1.869   1.354   0.230  1.00  0.00    +0.149 C 
ATOM      7  C   UNL     1      -1.917   1.613  -1.170  1.00  0.00    +0.112 C 
ATOM      8  N   UNL     1      -1.941   1.830  -2.310  1.00  0.00    -0.192 NA
ATOM      9  C   UNL     1      -1.655  -0.164   2.111  1.00  0.00    +0.103 C 
ATOM     10  N   UNL     1      -1.617  -0.391   3.247  1.00  0.00    -0.192 NA
ENDBRANCH   1   3
BRANCH   1  11
ATOM     11  N   UNL     1      -2.716  -1.758  -0.479  1.00  0.00    -0.398 N 
ATOM     12  H   UNL     1      -2.557  -2.667  -0.913  1.00  0.00    +0.156 HD
ATOM     13  H   UNL     1      -3.390  -1.831   0.282  1.00  0.00    +0.156 HD
ENDBRANCH   1  11
BRANCH   2  14
ATOM     14  C   UNL     1       0.908  -0.738  -0.447  1.00  0.00    -0.022 A 
ATOM     15  C   UNL     1       1.589  -0.907   0.765  1.00  0.00    +0.008 A 
ATOM     16  C   UNL     1       1.446   0.099  -1.431  1.00  0.00    +0.028 A 
ATOM     17  C   UNL     1       2.790  -0.234   0.998  1.00  0.00    +0.002 A 
ATOM     18  C   UNL     1       2.647   0.767  -1.192  1.00  0.00    +0.041 A 
ATOM     19  C   UNL     1       3.319   0.606   0.018  1.00  0.00    +0.020 A 
ATOM     20 Cl   UNL     1       3.301   1.802  -2.400  1.00  0.00    -0.084 Cl
ENDBRANCH   2  14
TORSDOF 3
