MODEL 1
REMARK VINA RESULT:    -7.663      0.000      0.000
REMARK INTER + INTRA:          -9.719
REMARK INTER:                  -9.455
REMARK INTRA:                  -0.265
REMARK UNBOUND:                -0.265
REMARK SMILES N#CC(=Cc1ccc(F)c(Cl)c1)C(N)=C(N)C(C#N)=C(C#N)C#N
REMARK SMILES IDX 1 1 2 2 3 3 4 4 13 5 15 6 14 7 16 10 17 13 18 14 20 15 19 16
REMARK SMILES IDX 21 17 23 18 22 19 24 20 5 21 6 22 12 23 7 24 10 25 8 26
REMARK SMILES IDX 11 27 9 28
REMARK H PARENT 14 8 14 9 16 11 16 12
ROOT
ATOM      1  N   UNL     1      26.967   3.287  50.106  1.00  0.00    -0.192 NA
ATOM      2  C   UNL     1      26.145   2.742  50.718  1.00  0.00    +0.101 C 
ATOM      3  C   UNL     1      25.148   2.108  51.524  1.00  0.00    +0.078 C 
ATOM      4  C   UNL     1      25.445   1.193  52.470  1.00  0.00    +0.030 C 
ENDROOT
BRANCH   3   5
ATOM      5  C   UNL     1      23.747   2.487  51.286  1.00  0.00    +0.074 C 
ATOM      6  C   UNL     1      23.142   3.425  52.072  1.00  0.00    +0.076 C 
BRANCH   5   7
ATOM      7  N   UNL     1      23.109   1.810  50.250  1.00  0.00    -0.396 N 
ATOM      8  H   UNL     1      22.092   1.822  50.305  1.00  0.00    +0.156 HD
ATOM      9  H   UNL     1      23.434   0.849  50.132  1.00  0.00    +0.156 HD
ENDBRANCH   5   7
BRANCH   6  10
ATOM     10  N   UNL     1      23.743   4.100  53.122  1.00  0.00    -0.396 N 
ATOM     11  H   UNL     1      23.165   4.790  53.598  1.00  0.00    +0.156 HD
ATOM     12  H   UNL     1      24.666   4.483  52.924  1.00  0.00    +0.156 HD
ENDBRANCH   6  10
BRANCH   6  13
ATOM     13  C   UNL     1      21.742   3.789  51.798  1.00  0.00    +0.106 C 
ATOM     14  C   UNL     1      21.552   5.024  51.101  1.00  0.00    +0.104 C 
ATOM     15  C   UNL     1      20.693   3.047  52.217  1.00  0.00    +0.149 C 
ATOM     16  N   UNL     1      21.401   6.042  50.569  1.00  0.00    -0.192 NA
ATOM     17  C   UNL     1      19.349   3.450  51.970  1.00  0.00    +0.112 C 
ATOM     18  C   UNL     1      20.890   1.817  52.906  1.00  0.00    +0.112 C 
ATOM     19  N   UNL     1      18.258   3.782  51.763  1.00  0.00    -0.192 NA
ATOM     20  N   UNL     1      21.062   0.798  53.432  1.00  0.00    -0.192 NA
ENDBRANCH   6  13
ENDBRANCH   3   5
BRANCH   4  21
ATOM     21  C   UNL     1      26.785   0.705  52.823  1.00  0.00    -0.023 A 
ATOM     22  C   UNL     1      27.787   1.572  53.283  1.00  0.00    +0.011 A 
ATOM     23  C   UNL     1      27.051  -0.668  52.740  1.00  0.00    +0.031 A 
ATOM     24  C   UNL     1      29.046   1.075  53.632  1.00  0.00    +0.041 A 
ATOM     25  C   UNL     1      28.310  -1.162  53.091  1.00  0.00    +0.077 A 
ATOM     26  C   UNL     1      29.300  -0.290  53.532  1.00  0.00    +0.141 A 
ATOM     27 Cl   UNL     1      28.613  -2.853  52.978  1.00  0.00    -0.081 Cl
ATOM     28  F   UNL     1      30.513  -0.745  53.877  1.00  0.00    -0.205 F 
ENDBRANCH   4  21
TORSDOF 5
ENDMDL
MODEL 2
REMARK VINA RESULT:    -7.660      1.368      2.878
REMARK INTER + INTRA:          -9.716
REMARK INTER:                  -9.568
REMARK INTRA:                  -0.148
REMARK UNBOUND:                -0.265
REMARK SMILES N#CC(=Cc1ccc(F)c(Cl)c1)C(N)=C(N)C(C#N)=C(C#N)C#N
REMARK SMILES IDX 1 1 2 2 3 3 4 4 13 5 15 6 14 7 16 10 17 13 18 14 20 15 19 16
REMARK SMILES IDX 21 17 23 18 22 19 24 20 5 21 6 22 12 23 7 24 10 25 8 26
REMARK SMILES IDX 11 27 9 28
REMARK H PARENT 14 8 14 9 16 11 16 12
ROOT
ATOM      1  N   UNL     1      24.182  -0.581  54.300  1.00  0.00    -0.192 NA
ATOM      2  C   UNL     1      24.484   0.251  53.549  1.00  0.00    +0.101 C 
ATOM      3  C   UNL     1      24.867   1.231  52.580  1.00  0.00    +0.078 C 
ATOM      4  C   UNL     1      26.149   1.437  52.215  1.00  0.00    +0.030 C 
ENDROOT
BRANCH   3   5
ATOM      5  C   UNL     1      23.795   2.035  51.974  1.00  0.00    +0.074 C 
ATOM      6  C   UNL     1      23.537   3.297  52.425  1.00  0.00    +0.076 C 
BRANCH   5   7
ATOM      7  N   UNL     1      23.075   1.408  50.959  1.00  0.00    -0.396 N 
ATOM      8  H   UNL     1      23.337   1.700  50.018  1.00  0.00    +0.156 HD
ATOM      9  H   UNL     1      22.064   1.484  51.072  1.00  0.00    +0.156 HD
ENDBRANCH   5   7
BRANCH   6  10
ATOM     10  N   UNL     1      24.221   3.939  53.445  1.00  0.00    -0.396 N 
ATOM     11  H   UNL     1      25.212   4.105  53.283  1.00  0.00    +0.156 HD
ATOM     12  H   UNL     1      24.071   3.558  54.379  1.00  0.00    +0.156 HD
ENDBRANCH   6  10
BRANCH   6  13
ATOM     13  C   UNL     1      22.464   4.078  51.787  1.00  0.00    +0.106 C 
ATOM     14  C   UNL     1      21.134   3.738  52.187  1.00  0.00    +0.104 C 
ATOM     15  C   UNL     1      22.698   5.018  50.846  1.00  0.00    +0.149 C 
ATOM     16  N   UNL     1      20.055   3.434  52.487  1.00  0.00    -0.192 NA
ATOM     17  C   UNL     1      21.634   5.728  50.219  1.00  0.00    +0.112 C 
ATOM     18  C   UNL     1      24.025   5.355  50.457  1.00  0.00    +0.112 C 
ATOM     19  N   UNL     1      20.763   6.303  49.716  1.00  0.00    -0.192 NA
ATOM     20  N   UNL     1      25.112   5.648  50.175  1.00  0.00    -0.192 NA
ENDBRANCH   6  13
ENDBRANCH   3   5
BRANCH   4  21
ATOM     21  C   UNL     1      27.328   0.727  52.727  1.00  0.00    -0.023 A 
ATOM     22  C   UNL     1      28.378   1.405  53.364  1.00  0.00    +0.011 A 
ATOM     23  C   UNL     1      27.382  -0.669  52.613  1.00  0.00    +0.031 A 
ATOM     24  C   UNL     1      29.477   0.698  53.860  1.00  0.00    +0.041 A 
ATOM     25  C   UNL     1      28.481  -1.373  53.112  1.00  0.00    +0.077 A 
ATOM     26  C   UNL     1      29.523  -0.687  53.729  1.00  0.00    +0.141 A 
ATOM     27 Cl   UNL     1      28.526  -3.086  52.959  1.00  0.00    -0.081 Cl
ATOM     28  F   UNL     1      30.585  -1.345  54.217  1.00  0.00    -0.205 F 
ENDBRANCH   4  21
TORSDOF 5
ENDMDL
MODEL 3
REMARK VINA RESULT:    -7.542      1.408      2.025
REMARK INTER + INTRA:          -9.571
REMARK INTER:                  -9.276
REMARK INTRA:                  -0.295
REMARK UNBOUND:                -0.265
REMARK SMILES N#CC(=Cc1ccc(F)c(Cl)c1)C(N)=C(N)C(C#N)=C(C#N)C#N
REMARK SMILES IDX 1 1 2 2 3 3 4 4 13 5 15 6 14 7 16 10 17 13 18 14 20 15 19 16
REMARK SMILES IDX 21 17 23 18 22 19 24 20 5 21 6 22 12 23 7 24 10 25 8 26
REMARK SMILES IDX 11 27 9 28
REMARK H PARENT 14 8 14 9 16 11 16 12
ROOT
ATOM      1  N   UNL     1      23.590  -0.048  53.702  1.00  0.00    -0.192 NA
ATOM      2  C   UNL     1      24.002   0.713  52.929  1.00  0.00    +0.101 C 
ATOM      3  C   UNL     1      24.521   1.602  51.936  1.00  0.00    +0.078 C 
ATOM      4  C   UNL     1      25.841   1.725  51.682  1.00  0.00    +0.030 C 
ENDROOT
BRANCH   3   5
ATOM      5  C   UNL     1      23.552   2.406  51.176  1.00  0.00    +0.074 C 
ATOM      6  C   UNL     1      23.320   3.709  51.512  1.00  0.00    +0.076 C 
BRANCH   5   7
ATOM      7  N   UNL     1      22.896   1.739  50.145  1.00  0.00    -0.396 N 
ATOM      8  H   UNL     1      23.360   0.886  49.836  1.00  0.00    +0.156 HD
ATOM      9  H   UNL     1      22.697   2.332  49.339  1.00  0.00    +0.156 HD
ENDBRANCH   5   7
BRANCH   6  10
ATOM     10  N   UNL     1      23.941   4.393  52.545  1.00  0.00    -0.396 N 
ATOM     11  H   UNL     1      23.347   4.651  53.330  1.00  0.00    +0.156 HD
ATOM     12  H   UNL     1      24.518   5.183  52.260  1.00  0.00    +0.156 HD
ENDBRANCH   6  10
BRANCH   6  13
ATOM     13  C   UNL     1      22.352   4.488  50.723  1.00  0.00    +0.106 C 
ATOM     14  C   UNL     1      22.913   5.311  49.697  1.00  0.00    +0.104 C 
ATOM     15  C   UNL     1      21.023   4.480  50.971  1.00  0.00    +0.149 C 
ATOM     16  N   UNL     1      23.376   6.005  48.891  1.00  0.00    -0.192 NA
ATOM     17  C   UNL     1      20.118   5.276  50.214  1.00  0.00    +0.112 C 
ATOM     18  C   UNL     1      20.470   3.654  51.990  1.00  0.00    +0.112 C 
ATOM     19  N   UNL     1      19.387   5.925  49.591  1.00  0.00    -0.192 NA
ATOM     20  N   UNL     1      20.027   2.949  52.798  1.00  0.00    -0.192 NA
ENDBRANCH   6  13
ENDBRANCH   3   5
BRANCH   4  21
ATOM     21  C   UNL     1      26.930   1.002  52.352  1.00  0.00    -0.023 A 
ATOM     22  C   UNL     1      27.909   1.673  53.100  1.00  0.00    +0.011 A 
ATOM     23  C   UNL     1      26.964  -0.397  52.275  1.00  0.00    +0.031 A 
ATOM     24  C   UNL     1      28.921   0.956  53.744  1.00  0.00    +0.041 A 
ATOM     25  C   UNL     1      27.976  -1.111  52.922  1.00  0.00    +0.077 A 
ATOM     26  C   UNL     1      28.949  -0.432  53.649  1.00  0.00    +0.141 A 
ATOM     27 Cl   UNL     1      27.998  -2.828  52.812  1.00  0.00    -0.081 Cl
ATOM     28  F   UNL     1      29.927  -1.100  54.279  1.00  0.00    -0.205 F 
ENDBRANCH   4  21
TORSDOF 5
ENDMDL
MODEL 4
REMARK VINA RESULT:    -7.526      1.345      2.654
REMARK INTER + INTRA:          -9.551
REMARK INTER:                  -8.950
REMARK INTRA:                  -0.601
REMARK UNBOUND:                -0.265
REMARK SMILES N#CC(=Cc1ccc(F)c(Cl)c1)C(N)=C(N)C(C#N)=C(C#N)C#N
REMARK SMILES IDX 1 1 2 2 3 3 4 4 13 5 15 6 14 7 16 10 17 13 18 14 20 15 19 16
REMARK SMILES IDX 21 17 23 18 22 19 24 20 5 21 6 22 12 23 7 24 10 25 8 26
REMARK SMILES IDX 11 27 9 28
REMARK H PARENT 14 8 14 9 16 11 16 12
ROOT
ATOM      1  N   UNL     1      26.916   3.240  49.773  1.00  0.00    -0.192 NA
ATOM      2  C   UNL     1      26.107   3.069  50.588  1.00  0.00    +0.101 C 
ATOM      3  C   UNL     1      25.143   2.895  51.631  1.00  0.00    +0.078 C 
ATOM      4  C   UNL     1      25.353   2.091  52.694  1.00  0.00    +0.030 C 
ENDROOT
BRANCH   3   5
ATOM      5  C   UNL     1      23.879   3.635  51.511  1.00  0.00    +0.074 C 
ATOM      6  C   UNL     1      22.829   3.103  50.819  1.00  0.00    +0.076 C 
BRANCH   5   7
ATOM      7  N   UNL     1      23.857   4.889  52.116  1.00  0.00    -0.396 N 
ATOM      8  H   UNL     1      24.453   4.968  52.939  1.00  0.00    +0.156 HD
ATOM      9  H   UNL     1      22.917   5.216  52.341  1.00  0.00    +0.156 HD
ENDBRANCH   5   7
BRANCH   6  10
ATOM     10  N   UNL     1      22.826   1.869  50.189  1.00  0.00    -0.396 N 
ATOM     11  H   UNL     1      23.030   1.066  50.781  1.00  0.00    +0.156 HD
ATOM     12  H   UNL     1      23.362   1.819  49.324  1.00  0.00    +0.156 HD
ENDBRANCH   6  10
BRANCH   6  13
ATOM     13  C   UNL     1      21.573   3.867  50.729  1.00  0.00    +0.106 C 
ATOM     14  C   UNL     1      20.595   3.564  51.728  1.00  0.00    +0.104 C 
ATOM     15  C   UNL     1      21.322   4.758  49.745  1.00  0.00    +0.149 C 
ATOM     16  N   UNL     1      19.792   3.289  52.518  1.00  0.00    -0.192 NA
ATOM     17  C   UNL     1      20.080   5.451  49.665  1.00  0.00    +0.112 C 
ATOM     18  C   UNL     1      22.302   5.059  48.757  1.00  0.00    +0.112 C 
ATOM     19  N   UNL     1      19.068   6.012  49.608  1.00  0.00    -0.192 NA
ATOM     20  N   UNL     1      23.121   5.324  47.980  1.00  0.00    -0.192 NA
ENDBRANCH   6  13
ENDBRANCH   3   5
BRANCH   4  21
ATOM     21  C   UNL     1      26.552   1.285  52.956  1.00  0.00    -0.023 A 
ATOM     22  C   UNL     1      27.718   1.852  53.493  1.00  0.00    +0.011 A 
ATOM     23  C   UNL     1      26.512  -0.093  52.703  1.00  0.00    +0.031 A 
ATOM     24  C   UNL     1      28.837   1.054  53.751  1.00  0.00    +0.041 A 
ATOM     25  C   UNL     1      27.632  -0.888  52.965  1.00  0.00    +0.077 A 
ATOM     26  C   UNL     1      28.787  -0.311  53.484  1.00  0.00    +0.141 A 
ATOM     27 Cl   UNL     1      27.559  -2.577  52.644  1.00  0.00    -0.081 Cl
ATOM     28  F   UNL     1      29.870  -1.058  53.745  1.00  0.00    -0.205 F 
ENDBRANCH   4  21
TORSDOF 5
ENDMDL
MODEL 5
REMARK VINA RESULT:    -7.479      4.454      7.822
REMARK INTER + INTRA:          -9.493
REMARK INTER:                  -9.006
REMARK INTRA:                  -0.487
REMARK UNBOUND:                -0.265
REMARK SMILES N#CC(=Cc1ccc(F)c(Cl)c1)C(N)=C(N)C(C#N)=C(C#N)C#N
REMARK SMILES IDX 1 1 2 2 3 3 4 4 13 5 15 6 14 7 16 10 17 13 18 14 20 15 19 16
REMARK SMILES IDX 21 17 23 18 22 19 24 20 5 21 6 22 12 23 7 24 10 25 8 26
REMARK SMILES IDX 11 27 9 28
REMARK H PARENT 14 8 14 9 16 11 16 12
ROOT
ATOM      1  N   UNL     1      23.398   3.769  52.700  1.00  0.00    -0.192 NA
ATOM      2  C   UNL     1      23.667   2.641  52.695  1.00  0.00    +0.101 C 
ATOM      3  C   UNL     1      24.014   1.254  52.627  1.00  0.00    +0.078 C 
ATOM      4  C   UNL     1      23.220   0.329  52.048  1.00  0.00    +0.030 C 
ENDROOT
BRANCH   3   5
ATOM      5  C   UNL     1      25.295   0.849  53.223  1.00  0.00    +0.074 C 
ATOM      6  C   UNL     1      26.464   1.040  52.545  1.00  0.00    +0.076 C 
BRANCH   5   7
ATOM      7  N   UNL     1      25.210   0.250  54.477  1.00  0.00    -0.396 N 
ATOM      8  H   UNL     1      24.966  -0.739  54.454  1.00  0.00    +0.156 HD
ATOM      9  H   UNL     1      24.589   0.741  55.121  1.00  0.00    +0.156 HD
ENDBRANCH   5   7
BRANCH   6  10
ATOM     10  N   UNL     1      26.579   1.613  51.289  1.00  0.00    -0.396 N 
ATOM     11  H   UNL     1      26.119   2.513  51.166  1.00  0.00    +0.156 HD
ATOM     12  H   UNL     1      26.369   0.995  50.506  1.00  0.00    +0.156 HD
ENDBRANCH   6  10
BRANCH   6  13
ATOM     13  C   UNL     1      27.730   0.633  53.178  1.00  0.00    +0.106 C 
ATOM     14  C   UNL     1      28.466   1.683  53.813  1.00  0.00    +0.104 C 
ATOM     15  C   UNL     1      28.207  -0.630  53.125  1.00  0.00    +0.149 C 
ATOM     16  N   UNL     1      29.077   2.543  54.295  1.00  0.00    -0.192 NA
ATOM     17  C   UNL     1      29.456  -0.981  53.714  1.00  0.00    +0.112 C 
ATOM     18  C   UNL     1      27.467  -1.670  52.496  1.00  0.00    +0.112 C 
ATOM     19  N   UNL     1      30.472  -1.259  54.197  1.00  0.00    -0.192 NA
ATOM     20  N   UNL     1      26.838  -2.517  52.014  1.00  0.00    -0.192 NA
ENDBRANCH   6  13
ENDBRANCH   3   5
BRANCH   4  21
ATOM     21  C   UNL     1      21.916   0.570  51.416  1.00  0.00    -0.023 A 
ATOM     22  C   UNL     1      21.808   1.178  50.157  1.00  0.00    +0.011 A 
ATOM     23  C   UNL     1      20.754   0.140  52.073  1.00  0.00    +0.031 A 
ATOM     24  C   UNL     1      20.553   1.373  49.572  1.00  0.00    +0.041 A 
ATOM     25  C   UNL     1      19.502   0.335  51.484  1.00  0.00    +0.077 A 
ATOM     26  C   UNL     1      19.408   0.952  50.240  1.00  0.00    +0.141 A 
ATOM     27 Cl   UNL     1      18.090  -0.200  52.310  1.00  0.00    -0.081 Cl
ATOM     28  F   UNL     1      18.215   1.146  49.658  1.00  0.00    -0.205 F 
ENDBRANCH   4  21
TORSDOF 5
ENDMDL
MODEL 6
REMARK VINA RESULT:    -7.323      2.477      3.938
REMARK INTER + INTRA:          -9.301
REMARK INTER:                  -9.263
REMARK INTRA:                  -0.038
REMARK UNBOUND:                -0.265
REMARK SMILES N#CC(=Cc1ccc(F)c(Cl)c1)C(N)=C(N)C(C#N)=C(C#N)C#N
REMARK SMILES IDX 1 1 2 2 3 3 4 4 13 5 15 6 14 7 16 10 17 13 18 14 20 15 19 16
REMARK SMILES IDX 21 17 23 18 22 19 24 20 5 21 6 22 12 23 7 24 10 25 8 26
REMARK SMILES IDX 11 27 9 28
REMARK H PARENT 14 8 14 9 16 11 16 12
ROOT
ATOM      1  N   UNL     1      22.956  -1.599  55.420  1.00  0.00    -0.192 NA
ATOM      2  C   UNL     1      22.926  -0.956  54.454  1.00  0.00    +0.101 C 
ATOM      3  C   UNL     1      22.911  -0.214  53.231  1.00  0.00    +0.078 C 
ATOM      4  C   UNL     1      24.031   0.271  52.656  1.00  0.00    +0.030 C 
ENDROOT
BRANCH   3   5
ATOM      5  C   UNL     1      21.604   0.017  52.598  1.00  0.00    +0.074 C 
ATOM      6  C   UNL     1      20.503   0.278  53.361  1.00  0.00    +0.076 C 
BRANCH   5   7
ATOM      7  N   UNL     1      21.584  -0.081  51.209  1.00  0.00    -0.396 N 
ATOM      8  H   UNL     1      21.352   0.788  50.731  1.00  0.00    +0.156 HD
ATOM      9  H   UNL     1      20.987  -0.833  50.863  1.00  0.00    +0.156 HD
ENDBRANCH   5   7
BRANCH   6  10
ATOM     10  N   UNL     1      20.486   0.361  54.744  1.00  0.00    -0.396 N 
ATOM     11  H   UNL     1      21.103  -0.282  55.237  1.00  0.00    +0.156 HD
ATOM     12  H   UNL     1      19.561   0.365  55.170  1.00  0.00    +0.156 HD
ENDBRANCH   6  10
BRANCH   6  13
ATOM     13  C   UNL     1      19.212   0.516  52.693  1.00  0.00    +0.106 C 
ATOM     14  C   UNL     1      18.332  -0.610  52.634  1.00  0.00    +0.104 C 
ATOM     15  C   UNL     1      18.886   1.696  52.120  1.00  0.00    +0.149 C 
ATOM     16  N   UNL     1      17.638  -1.536  52.557  1.00  0.00    -0.192 NA
ATOM     17  C   UNL     1      17.644   1.880  51.447  1.00  0.00    +0.112 C 
ATOM     18  C   UNL     1      19.764   2.814  52.187  1.00  0.00    +0.112 C 
ATOM     19  N   UNL     1      16.631   2.023  50.903  1.00  0.00    -0.192 NA
ATOM     20  N   UNL     1      20.471   3.729  52.281  1.00  0.00    -0.192 NA
ENDBRANCH   6  13
ENDBRANCH   3   5
BRANCH   4  21
ATOM     21  C   UNL     1      25.403   0.133  53.162  1.00  0.00    -0.023 A 
ATOM     22  C   UNL     1      25.973   1.087  54.017  1.00  0.00    +0.011 A 
ATOM     23  C   UNL     1      26.143  -1.005  52.813  1.00  0.00    +0.031 A 
ATOM     24  C   UNL     1      27.274   0.916  54.499  1.00  0.00    +0.041 A 
ATOM     25  C   UNL     1      27.443  -1.174  53.298  1.00  0.00    +0.077 A 
ATOM     26  C   UNL     1      28.002  -0.213  54.135  1.00  0.00    +0.141 A 
ATOM     27 Cl   UNL     1      28.333  -2.578  52.854  1.00  0.00    -0.081 Cl
ATOM     28  F   UNL     1      29.246  -0.358  54.614  1.00  0.00    -0.205 F 
ENDBRANCH   4  21
TORSDOF 5
ENDMDL
MODEL 7
REMARK VINA RESULT:    -7.239      1.797      3.133
REMARK INTER + INTRA:          -9.196
REMARK INTER:                  -9.093
REMARK INTRA:                  -0.103
REMARK UNBOUND:                -0.265
REMARK SMILES N#CC(=Cc1ccc(F)c(Cl)c1)C(N)=C(N)C(C#N)=C(C#N)C#N
REMARK SMILES IDX 1 1 2 2 3 3 4 4 13 5 15 6 14 7 16 10 17 13 18 14 20 15 19 16
REMARK SMILES IDX 21 17 23 18 22 19 24 20 5 21 6 22 12 23 7 24 10 25 8 26
REMARK SMILES IDX 11 27 9 28
REMARK H PARENT 14 8 14 9 16 11 16 12
ROOT
ATOM      1  N   UNL     1      23.168   0.140  53.557  1.00  0.00    -0.192 NA
ATOM      2  C   UNL     1      23.920   0.934  53.169  1.00  0.00    +0.101 C 
ATOM      3  C   UNL     1      24.843   1.887  52.632  1.00  0.00    +0.078 C 
ATOM      4  C   UNL     1      26.131   1.586  52.368  1.00  0.00    +0.030 C 
ENDROOT
BRANCH   3   5
ATOM      5  C   UNL     1      24.338   3.242  52.371  1.00  0.00    +0.074 C 
ATOM      6  C   UNL     1      23.910   3.592  51.122  1.00  0.00    +0.076 C 
BRANCH   5   7
ATOM      7  N   UNL     1      24.364   4.113  53.457  1.00  0.00    -0.396 N 
ATOM      8  H   UNL     1      24.094   5.070  53.234  1.00  0.00    +0.156 HD
ATOM      9  H   UNL     1      25.254   4.115  53.955  1.00  0.00    +0.156 HD
ENDBRANCH   5   7
BRANCH   6  10
ATOM     10  N   UNL     1      23.892   2.756  50.018  1.00  0.00    -0.396 N 
ATOM     11  H   UNL     1      24.642   2.891  49.343  1.00  0.00    +0.156 HD
ATOM     12  H   UNL     1      22.994   2.680  49.541  1.00  0.00    +0.156 HD
ENDBRANCH   6  10
BRANCH   6  13
ATOM     13  C   UNL     1      23.399   4.954  50.899  1.00  0.00    +0.106 C 
ATOM     14  C   UNL     1      24.370   5.913  50.470  1.00  0.00    +0.104 C 
ATOM     15  C   UNL     1      22.115   5.307  51.129  1.00  0.00    +0.149 C 
ATOM     16  N   UNL     1      25.168   6.695  50.159  1.00  0.00    -0.192 NA
ATOM     17  C   UNL     1      21.663   6.644  50.941  1.00  0.00    +0.112 C 
ATOM     18  C   UNL     1      21.153   4.346  51.550  1.00  0.00    +0.112 C 
ATOM     19  N   UNL     1      21.302   7.734  50.782  1.00  0.00    -0.192 NA
ATOM     20  N   UNL     1      20.369   3.548  51.856  1.00  0.00    -0.192 NA
ENDBRANCH   6  13
ENDBRANCH   3   5
BRANCH   4  21
ATOM     21  C   UNL     1      26.787   0.289  52.577  1.00  0.00    -0.023 A 
ATOM     22  C   UNL     1      26.179  -0.915  52.189  1.00  0.00    +0.011 A 
ATOM     23  C   UNL     1      28.071   0.260  53.138  1.00  0.00    +0.031 A 
ATOM     24  C   UNL     1      26.838  -2.133  52.382  1.00  0.00    +0.041 A 
ATOM     25  C   UNL     1      28.727  -0.960  53.327  1.00  0.00    +0.077 A 
ATOM     26  C   UNL     1      28.107  -2.148  52.952  1.00  0.00    +0.141 A 
ATOM     27 Cl   UNL     1      30.302  -0.970  54.020  1.00  0.00    -0.081 Cl
ATOM     28  F   UNL     1      28.723  -3.327  53.122  1.00  0.00    -0.205 F 
ENDBRANCH   4  21
TORSDOF 5
ENDMDL
MODEL 8
REMARK VINA RESULT:    -7.164      2.642      4.092
REMARK INTER + INTRA:          -9.104
REMARK INTER:                  -8.998
REMARK INTRA:                  -0.105
REMARK UNBOUND:                -0.265
REMARK SMILES N#CC(=Cc1ccc(F)c(Cl)c1)C(N)=C(N)C(C#N)=C(C#N)C#N
REMARK SMILES IDX 1 1 2 2 3 3 4 4 13 5 15 6 14 7 16 10 17 13 18 14 20 15 19 16
REMARK SMILES IDX 21 17 23 18 22 19 24 20 5 21 6 22 12 23 7 24 10 25 8 26
REMARK SMILES IDX 11 27 9 28
REMARK H PARENT 14 8 14 9 16 11 16 12
ROOT
ATOM      1  N   UNL     1      23.584   3.037  52.724  1.00  0.00    -0.192 NA
ATOM      2  C   UNL     1      23.275   1.919  52.693  1.00  0.00    +0.101 C 
ATOM      3  C   UNL     1      22.892   0.541  52.719  1.00  0.00    +0.078 C 
ATOM      4  C   UNL     1      23.742  -0.448  53.066  1.00  0.00    +0.030 C 
ENDROOT
BRANCH   3   5
ATOM      5  C   UNL     1      21.507   0.219  52.344  1.00  0.00    +0.074 C 
ATOM      6  C   UNL     1      20.528   0.165  53.295  1.00  0.00    +0.076 C 
BRANCH   5   7
ATOM      7  N   UNL     1      21.297  -0.046  50.994  1.00  0.00    -0.396 N 
ATOM      8  H   UNL     1      21.040   0.771  50.442  1.00  0.00    +0.156 HD
ATOM      9  H   UNL     1      20.626  -0.796  50.826  1.00  0.00    +0.156 HD
ENDBRANCH   5   7
BRANCH   6  10
ATOM     10  N   UNL     1      20.710   0.403  54.648  1.00  0.00    -0.396 N 
ATOM     11  H   UNL     1      19.890   0.724  55.159  1.00  0.00    +0.156 HD
ATOM     12  H   UNL     1      21.524   0.968  54.886  1.00  0.00    +0.156 HD
ENDBRANCH   6  10
BRANCH   6  13
ATOM     13  C   UNL     1      19.150  -0.149  52.883  1.00  0.00    +0.106 C 
ATOM     14  C   UNL     1      18.665  -1.433  53.283  1.00  0.00    +0.104 C 
ATOM     15  C   UNL     1      18.399   0.686  52.131  1.00  0.00    +0.149 C 
ATOM     16  N   UNL     1      18.289  -2.490  53.577  1.00  0.00    -0.192 NA
ATOM     17  C   UNL     1      17.082   0.334  51.715  1.00  0.00    +0.112 C 
ATOM     18  C   UNL     1      18.886   1.965  51.741  1.00  0.00    +0.112 C 
ATOM     19  N   UNL     1      16.011   0.041  51.384  1.00  0.00    -0.192 NA
ATOM     20  N   UNL     1      19.279   3.020  51.461  1.00  0.00    -0.192 NA
ENDBRANCH   6  13
ENDBRANCH   3   5
BRANCH   4  21
ATOM     21  C   UNL     1      25.148  -0.293  53.458  1.00  0.00    -0.023 A 
ATOM     22  C   UNL     1      26.166  -0.140  52.506  1.00  0.00    +0.011 A 
ATOM     23  C   UNL     1      25.473  -0.255  54.822  1.00  0.00    +0.031 A 
ATOM     24  C   UNL     1      27.494   0.026  52.911  1.00  0.00    +0.041 A 
ATOM     25  C   UNL     1      26.801  -0.087  55.223  1.00  0.00    +0.077 A 
ATOM     26  C   UNL     1      27.803   0.050  54.267  1.00  0.00    +0.141 A 
ATOM     27 Cl   UNL     1      27.174  -0.045  56.902  1.00  0.00    -0.081 Cl
ATOM     28  F   UNL     1      29.083   0.216  54.633  1.00  0.00    -0.205 F 
ENDBRANCH   4  21
TORSDOF 5
ENDMDL
MODEL 9
REMARK VINA RESULT:    -7.016      1.377      2.009
REMARK INTER + INTRA:          -8.921
REMARK INTER:                  -8.382
REMARK INTRA:                  -0.539
REMARK UNBOUND:                -0.265
REMARK SMILES N#CC(=Cc1ccc(F)c(Cl)c1)C(N)=C(N)C(C#N)=C(C#N)C#N
REMARK SMILES IDX 1 1 2 2 3 3 4 4 13 5 15 6 14 7 16 10 17 13 18 14 20 15 19 16
REMARK SMILES IDX 21 17 23 18 22 19 24 20 5 21 6 22 12 23 7 24 10 25 8 26
REMARK SMILES IDX 11 27 9 28
REMARK H PARENT 14 8 14 9 16 11 16 12
ROOT
ATOM      1  N   UNL     1      26.362   3.220  50.163  1.00  0.00    -0.192 NA
ATOM      2  C   UNL     1      25.546   2.844  50.898  1.00  0.00    +0.101 C 
ATOM      3  C   UNL     1      24.567   2.416  51.849  1.00  0.00    +0.078 C 
ATOM      4  C   UNL     1      24.825   1.491  52.797  1.00  0.00    +0.030 C 
ENDROOT
BRANCH   3   5
ATOM      5  C   UNL     1      23.231   3.025  51.765  1.00  0.00    +0.074 C 
ATOM      6  C   UNL     1      22.275   2.486  50.952  1.00  0.00    +0.076 C 
BRANCH   5   7
ATOM      7  N   UNL     1      23.045   4.172  52.532  1.00  0.00    -0.396 N 
ATOM      8  H   UNL     1      23.662   4.945  52.287  1.00  0.00    +0.156 HD
ATOM      9  H   UNL     1      23.094   4.001  53.537  1.00  0.00    +0.156 HD
ENDBRANCH   5   7
BRANCH   6  10
ATOM     10  N   UNL     1      22.437   1.360  50.162  1.00  0.00    -0.396 N 
ATOM     11  H   UNL     1      22.751   0.519  50.642  1.00  0.00    +0.156 HD
ATOM     12  H   UNL     1      22.969   1.501  49.304  1.00  0.00    +0.156 HD
ENDBRANCH   6  10
BRANCH   6  13
ATOM     13  C   UNL     1      20.945   3.115  50.901  1.00  0.00    +0.106 C 
ATOM     14  C   UNL     1      20.799   4.169  49.945  1.00  0.00    +0.104 C 
ATOM     15  C   UNL     1      19.935   2.771  51.731  1.00  0.00    +0.149 C 
ATOM     16  N   UNL     1      20.695   5.047  49.195  1.00  0.00    -0.192 NA
ATOM     17  C   UNL     1      18.673   3.427  51.681  1.00  0.00    +0.112 C 
ATOM     18  C   UNL     1      20.087   1.718  52.676  1.00  0.00    +0.112 C 
ATOM     19  N   UNL     1      17.647   3.965  51.633  1.00  0.00    -0.192 NA
ATOM     20  N   UNL     1      20.209   0.833  53.416  1.00  0.00    -0.192 NA
ENDBRANCH   6  13
ENDBRANCH   3   5
BRANCH   4  21
ATOM     21  C   UNL     1      26.097   0.789  53.010  1.00  0.00    -0.023 A 
ATOM     22  C   UNL     1      26.304  -0.518  52.544  1.00  0.00    +0.011 A 
ATOM     23  C   UNL     1      27.143   1.461  53.657  1.00  0.00    +0.031 A 
ATOM     24  C   UNL     1      27.534  -1.152  52.743  1.00  0.00    +0.041 A 
ATOM     25  C   UNL     1      28.371   0.824  53.853  1.00  0.00    +0.077 A 
ATOM     26  C   UNL     1      28.559  -0.477  53.398  1.00  0.00    +0.141 A 
ATOM     27 Cl   UNL     1      29.640   1.669  54.652  1.00  0.00    -0.081 Cl
ATOM     28  F   UNL     1      29.733  -1.103  53.573  1.00  0.00    -0.205 F 
ENDBRANCH   4  21
TORSDOF 5
ENDMDL
