MODEL 1
REMARK VINA RESULT:    -7.474      0.000      0.000
REMARK INTER + INTRA:          -9.670
REMARK INTER:                  -9.003
REMARK INTRA:                  -0.666
REMARK UNBOUND:                -0.666
REMARK SMILES O=[N+]([O-])c1cc(-c2ccc(N3CCOCC3)[nH]2)ccc1O
REMARK SMILES IDX 4 1 5 2 6 3 18 4 19 5 20 6 2 7 1 8 3 9 21 10 7 12 8 13 17 14
REMARK SMILES IDX 9 15 10 16 11 18 12 19 16 20 13 21 15 22 14 23
REMARK H PARENT 21 11 17 17
ROOT
ATOM      1  C   UNL     1      26.842   0.330  54.074  1.00  0.00    +0.311 A 
ATOM      2  C   UNL     1      25.544  -0.141  54.314  1.00  0.00    +0.100 A 
ATOM      3  C   UNL     1      24.510   0.211  53.439  1.00  0.00    +0.005 A 
ATOM      4  C   UNL     1      24.809   1.027  52.336  1.00  0.00    +0.014 A 
ATOM      5  C   UNL     1      26.109   1.500  52.111  1.00  0.00    +0.054 A 
ATOM      6  C   UNL     1      27.133   1.154  52.988  1.00  0.00    +0.194 A 
ENDROOT
BRANCH   1   7
ATOM      7  N   UNL     1      27.886  -0.066  54.997  1.00  0.00    +0.066 N 
ATOM      8  O   UNL     1      28.909  -0.581  54.526  1.00  0.00    -0.258 OA
ATOM      9  O   UNL     1      27.646   0.084  56.206  1.00  0.00    -0.258 OA
ENDBRANCH   1   7
BRANCH   6  10
ATOM     10  O   UNL     1      28.389   1.644  52.792  1.00  0.00    -0.502 OA
ATOM     11  H   UNL     1      28.567   1.733  51.840  1.00  0.00    +0.293 HD
ENDBRANCH   6  10
BRANCH   3  12
ATOM     12  C   UNL     1      23.144  -0.261  53.659  1.00  0.00    +0.047 A 
ATOM     13  C   UNL     1      22.630  -1.132  54.603  1.00  0.00    +0.030 A 
ATOM     14  N   UNL     1      22.079   0.109  52.860  1.00  0.00    -0.341 N 
ATOM     15  C   UNL     1      21.240  -1.267  54.367  1.00  0.00    +0.047 A 
ATOM     16  C   UNL     1      20.912  -0.477  53.286  1.00  0.00    +0.106 A 
ATOM     17  H   UNL     1      22.154   0.693  52.043  1.00  0.00    +0.168 HD
BRANCH  16  18
ATOM     18  N   UNL     1      19.729  -0.261  52.650  1.00  0.00    -0.354 N 
ATOM     19  C   UNL     1      18.480  -0.834  53.177  1.00  0.00    +0.146 C 
ATOM     20  C   UNL     1      19.561   0.731  51.575  1.00  0.00    +0.146 C 
ATOM     21  C   UNL     1      17.413  -0.873  52.071  1.00  0.00    +0.181 C 
ATOM     22  C   UNL     1      18.160   1.361  51.638  1.00  0.00    +0.181 C 
ATOM     23  O   UNL     1      17.090   0.414  51.522  1.00  0.00    -0.378 OA
ENDBRANCH  16  18
ENDBRANCH   3  12
TORSDOF 4
ENDMDL
MODEL 2
REMARK VINA RESULT:    -7.168      4.137      5.784
REMARK INTER + INTRA:          -9.301
REMARK INTER:                  -8.645
REMARK INTRA:                  -0.656
REMARK UNBOUND:                -0.666
REMARK SMILES O=[N+]([O-])c1cc(-c2ccc(N3CCOCC3)[nH]2)ccc1O
REMARK SMILES IDX 4 1 5 2 6 3 18 4 19 5 20 6 2 7 1 8 3 9 21 10 7 12 8 13 17 14
REMARK SMILES IDX 9 15 10 16 11 18 12 19 16 20 13 21 15 22 14 23
REMARK H PARENT 21 11 17 17
ROOT
ATOM      1  C   UNL     1      24.049  -0.556  54.292  1.00  0.00    +0.311 A 
ATOM      2  C   UNL     1      23.995   0.383  53.251  1.00  0.00    +0.100 A 
ATOM      3  C   UNL     1      22.753   0.802  52.764  1.00  0.00    +0.005 A 
ATOM      4  C   UNL     1      21.588   0.270  53.342  1.00  0.00    +0.014 A 
ATOM      5  C   UNL     1      21.653  -0.674  54.375  1.00  0.00    +0.054 A 
ATOM      6  C   UNL     1      22.891  -1.095  54.852  1.00  0.00    +0.194 A 
ENDROOT
BRANCH   1   7
ATOM      7  N   UNL     1      25.354  -0.956  54.774  1.00  0.00    +0.066 N 
ATOM      8  O   UNL     1      25.555  -0.918  55.996  1.00  0.00    -0.258 OA
ATOM      9  O   UNL     1      26.200  -1.247  53.915  1.00  0.00    -0.258 OA
ENDBRANCH   1   7
BRANCH   6  10
ATOM     10  O   UNL     1      22.956  -2.041  55.830  1.00  0.00    -0.502 OA
ATOM     11  H   UNL     1      22.077  -2.173  56.224  1.00  0.00    +0.293 HD
ENDBRANCH   6  10
BRANCH   3  12
ATOM     12  C   UNL     1      22.658   1.778  51.679  1.00  0.00    +0.047 A 
ATOM     13  C   UNL     1      22.367   1.610  50.337  1.00  0.00    +0.030 A 
ATOM     14  N   UNL     1      22.898   3.126  51.853  1.00  0.00    -0.341 N 
ATOM     15  C   UNL     1      22.423   2.880  49.712  1.00  0.00    +0.047 A 
ATOM     16  C   UNL     1      22.742   3.815  50.674  1.00  0.00    +0.106 A 
ATOM     17  H   UNL     1      23.198   3.547  52.718  1.00  0.00    +0.168 HD
BRANCH  16  18
ATOM     18  N   UNL     1      22.930   5.159  50.601  1.00  0.00    -0.354 N 
ATOM     19  C   UNL     1      21.903   6.088  51.100  1.00  0.00    +0.146 C 
ATOM     20  C   UNL     1      24.226   5.775  50.270  1.00  0.00    +0.146 C 
ATOM     21  C   UNL     1      22.109   7.480  50.482  1.00  0.00    +0.181 C 
ATOM     22  C   UNL     1      24.407   7.095  51.037  1.00  0.00    +0.181 C 
ATOM     23  O   UNL     1      23.387   8.067  50.773  1.00  0.00    -0.378 OA
ENDBRANCH  16  18
ENDBRANCH   3  12
TORSDOF 4
ENDMDL
MODEL 3
REMARK VINA RESULT:    -7.165      4.060      6.191
REMARK INTER + INTRA:          -9.297
REMARK INTER:                  -8.638
REMARK INTRA:                  -0.659
REMARK UNBOUND:                -0.666
REMARK SMILES O=[N+]([O-])c1cc(-c2ccc(N3CCOCC3)[nH]2)ccc1O
REMARK SMILES IDX 4 1 5 2 6 3 18 4 19 5 20 6 2 7 1 8 3 9 21 10 7 12 8 13 17 14
REMARK SMILES IDX 9 15 10 16 11 18 12 19 16 20 13 21 15 22 14 23
REMARK H PARENT 21 11 17 17
ROOT
ATOM      1  C   UNL     1      26.414   0.235  54.425  1.00  0.00    +0.311 A 
ATOM      2  C   UNL     1      26.586   1.204  53.426  1.00  0.00    +0.100 A 
ATOM      3  C   UNL     1      25.528   1.498  52.560  1.00  0.00    +0.005 A 
ATOM      4  C   UNL     1      24.313   0.812  52.723  1.00  0.00    +0.014 A 
ATOM      5  C   UNL     1      24.154  -0.162  53.719  1.00  0.00    +0.054 A 
ATOM      6  C   UNL     1      25.213  -0.457  54.574  1.00  0.00    +0.194 A 
ENDROOT
BRANCH   1   7
ATOM      7  N   UNL     1      27.531  -0.032  55.307  1.00  0.00    +0.066 N 
ATOM      8  O   UNL     1      28.606  -0.371  54.791  1.00  0.00    -0.258 OA
ATOM      9  O   UNL     1      27.307   0.036  56.525  1.00  0.00    -0.258 OA
ENDBRANCH   1   7
BRANCH   6  10
ATOM     10  O   UNL     1      25.073  -1.430  55.517  1.00  0.00    -0.502 OA
ATOM     11  H   UNL     1      25.332  -1.087  56.390  1.00  0.00    +0.293 HD
ENDBRANCH   6  10
BRANCH   3  12
ATOM     12  C   UNL     1      25.671   2.501  51.506  1.00  0.00    +0.047 A 
ATOM     13  C   UNL     1      26.433   2.494  50.351  1.00  0.00    +0.030 A 
ATOM     14  N   UNL     1      25.030   3.724  51.534  1.00  0.00    -0.341 N 
ATOM     15  C   UNL     1      26.227   3.724  49.680  1.00  0.00    +0.047 A 
ATOM     16  C   UNL     1      25.340   4.472  50.424  1.00  0.00    +0.106 A 
ATOM     17  H   UNL     1      24.450   4.048  52.291  1.00  0.00    +0.168 HD
BRANCH  16  18
ATOM     18  N   UNL     1      24.827   5.718  50.236  1.00  0.00    -0.354 N 
ATOM     19  C   UNL     1      23.680   6.183  51.033  1.00  0.00    +0.146 C 
ATOM     20  C   UNL     1      25.502   6.756  49.439  1.00  0.00    +0.146 C 
ATOM     21  C   UNL     1      22.997   7.367  50.328  1.00  0.00    +0.181 C 
ATOM     22  C   UNL     1      25.243   8.148  50.040  1.00  0.00    +0.181 C 
ATOM     23  O   UNL     1      23.855   8.499  50.120  1.00  0.00    -0.378 OA
ENDBRANCH  16  18
ENDBRANCH   3  12
TORSDOF 4
ENDMDL
MODEL 4
REMARK VINA RESULT:    -7.128      2.328      3.206
REMARK INTER + INTRA:          -9.253
REMARK INTER:                  -8.559
REMARK INTRA:                  -0.694
REMARK UNBOUND:                -0.666
REMARK SMILES O=[N+]([O-])c1cc(-c2ccc(N3CCOCC3)[nH]2)ccc1O
REMARK SMILES IDX 4 1 5 2 6 3 18 4 19 5 20 6 2 7 1 8 3 9 21 10 7 12 8 13 17 14
REMARK SMILES IDX 9 15 10 16 11 18 12 19 16 20 13 21 15 22 14 23
REMARK H PARENT 21 11 17 17
ROOT
ATOM      1  C   UNL     1      28.039   0.815  53.643  1.00  0.00    +0.311 A 
ATOM      2  C   UNL     1      26.660   1.062  53.577  1.00  0.00    +0.100 A 
ATOM      3  C   UNL     1      25.785   0.013  53.276  1.00  0.00    +0.005 A 
ATOM      4  C   UNL     1      26.318  -1.267  53.055  1.00  0.00    +0.014 A 
ATOM      5  C   UNL     1      27.698  -1.502  53.115  1.00  0.00    +0.054 A 
ATOM      6  C   UNL     1      28.567  -0.454  53.406  1.00  0.00    +0.194 A 
ENDROOT
BRANCH   1   7
ATOM      7  N   UNL     1      28.910   1.925  53.967  1.00  0.00    +0.066 N 
ATOM      8  O   UNL     1      29.500   1.897  55.056  1.00  0.00    -0.258 OA
ATOM      9  O   UNL     1      28.950   2.858  53.150  1.00  0.00    -0.258 OA
ENDBRANCH   1   7
BRANCH   6  10
ATOM     10  O   UNL     1      29.911  -0.672  53.426  1.00  0.00    -0.502 OA
ATOM     11  H   UNL     1      30.106  -1.578  53.132  1.00  0.00    +0.293 HD
ENDBRANCH   6  10
BRANCH   3  12
ATOM     12  C   UNL     1      24.342   0.235  53.197  1.00  0.00    +0.047 A 
ATOM     13  C   UNL     1      23.282  -0.587  53.538  1.00  0.00    +0.030 A 
ATOM     14  N   UNL     1      23.781   1.393  52.696  1.00  0.00    -0.341 N 
ATOM     15  C   UNL     1      22.079   0.102  53.247  1.00  0.00    +0.047 A 
ATOM     16  C   UNL     1      22.409   1.339  52.736  1.00  0.00    +0.106 A 
ATOM     17  H   UNL     1      24.306   2.159  52.305  1.00  0.00    +0.168 HD
BRANCH  16  18
ATOM     18  N   UNL     1      21.639   2.367  52.290  1.00  0.00    -0.354 N 
ATOM     19  C   UNL     1      22.216   3.418  51.434  1.00  0.00    +0.146 C 
ATOM     20  C   UNL     1      20.171   2.383  52.401  1.00  0.00    +0.146 C 
ATOM     21  C   UNL     1      21.327   4.671  51.472  1.00  0.00    +0.181 C 
ATOM     22  C   UNL     1      19.546   3.094  51.189  1.00  0.00    +0.181 C 
ATOM     23  O   UNL     1      19.982   4.450  51.021  1.00  0.00    -0.378 OA
ENDBRANCH  16  18
ENDBRANCH   3  12
TORSDOF 4
ENDMDL
MODEL 5
REMARK VINA RESULT:    -7.115      3.471      4.798
REMARK INTER + INTRA:          -9.237
REMARK INTER:                  -8.535
REMARK INTRA:                  -0.703
REMARK UNBOUND:                -0.666
REMARK SMILES O=[N+]([O-])c1cc(-c2ccc(N3CCOCC3)[nH]2)ccc1O
REMARK SMILES IDX 4 1 5 2 6 3 18 4 19 5 20 6 2 7 1 8 3 9 21 10 7 12 8 13 17 14
REMARK SMILES IDX 9 15 10 16 11 18 12 19 16 20 13 21 15 22 14 23
REMARK H PARENT 21 11 17 17
ROOT
ATOM      1  C   UNL     1      25.123  -0.343  54.345  1.00  0.00    +0.311 A 
ATOM      2  C   UNL     1      24.515   0.193  53.202  1.00  0.00    +0.100 A 
ATOM      3  C   UNL     1      23.140   0.021  53.007  1.00  0.00    +0.005 A 
ATOM      4  C   UNL     1      22.406  -0.685  53.973  1.00  0.00    +0.014 A 
ATOM      5  C   UNL     1      23.025  -1.225  55.108  1.00  0.00    +0.054 A 
ATOM      6  C   UNL     1      24.395  -1.059  55.295  1.00  0.00    +0.194 A 
ENDROOT
BRANCH   1   7
ATOM      7  N   UNL     1      26.546  -0.134  54.515  1.00  0.00    +0.066 N 
ATOM      8  O   UNL     1      27.316  -0.801  53.809  1.00  0.00    -0.258 OA
ATOM      9  O   UNL     1      26.890   0.657  55.407  1.00  0.00    -0.258 OA
ENDBRANCH   1   7
BRANCH   6  10
ATOM     10  O   UNL     1      25.005  -1.616  56.377  1.00  0.00    -0.502 OA
ATOM     11  H   UNL     1      25.635  -2.299  56.090  1.00  0.00    +0.293 HD
ENDBRANCH   6  10
BRANCH   3  12
ATOM     12  C   UNL     1      22.472   0.565  51.825  1.00  0.00    +0.047 A 
ATOM     13  C   UNL     1      21.294   0.193  51.203  1.00  0.00    +0.030 A 
ATOM     14  N   UNL     1      22.988   1.605  51.077  1.00  0.00    -0.341 N 
ATOM     15  C   UNL     1      21.104   1.036  50.080  1.00  0.00    +0.047 A 
ATOM     16  C   UNL     1      22.162   1.917  50.025  1.00  0.00    +0.106 A 
ATOM     17  H   UNL     1      23.877   2.046  51.249  1.00  0.00    +0.168 HD
BRANCH  16  18
ATOM     18  N   UNL     1      22.467   2.910  49.146  1.00  0.00    -0.354 N 
ATOM     19  C   UNL     1      21.422   3.501  48.293  1.00  0.00    +0.146 C 
ATOM     20  C   UNL     1      23.752   3.627  49.154  1.00  0.00    +0.146 C 
ATOM     21  C   UNL     1      22.067   4.212  47.092  1.00  0.00    +0.181 C 
ATOM     22  C   UNL     1      23.552   5.097  48.750  1.00  0.00    +0.181 C 
ATOM     23  O   UNL     1      22.968   5.269  47.451  1.00  0.00    -0.378 OA
ENDBRANCH  16  18
ENDBRANCH   3  12
TORSDOF 4
ENDMDL
MODEL 6
REMARK VINA RESULT:    -7.112      1.362      2.542
REMARK INTER + INTRA:          -9.233
REMARK INTER:                  -8.607
REMARK INTRA:                  -0.626
REMARK UNBOUND:                -0.666
REMARK SMILES O=[N+]([O-])c1cc(-c2ccc(N3CCOCC3)[nH]2)ccc1O
REMARK SMILES IDX 4 1 5 2 6 3 18 4 19 5 20 6 2 7 1 8 3 9 21 10 7 12 8 13 17 14
REMARK SMILES IDX 9 15 10 16 11 18 12 19 16 20 13 21 15 22 14 23
REMARK H PARENT 21 11 17 17
ROOT
ATOM      1  C   UNL     1      26.590   1.241  53.636  1.00  0.00    +0.311 A 
ATOM      2  C   UNL     1      25.392   1.385  52.922  1.00  0.00    +0.100 A 
ATOM      3  C   UNL     1      24.334   0.503  53.166  1.00  0.00    +0.005 A 
ATOM      4  C   UNL     1      24.505  -0.504  54.131  1.00  0.00    +0.014 A 
ATOM      5  C   UNL     1      25.710  -0.644  54.832  1.00  0.00    +0.054 A 
ATOM      6  C   UNL     1      26.763   0.230  54.580  1.00  0.00    +0.194 A 
ENDROOT
BRANCH   1   7
ATOM      7  N   UNL     1      27.658   2.181  53.360  1.00  0.00    +0.066 N 
ATOM      8  O   UNL     1      27.899   2.449  52.176  1.00  0.00    -0.258 OA
ATOM      9  O   UNL     1      28.296   2.599  54.338  1.00  0.00    -0.258 OA
ENDBRANCH   1   7
BRANCH   6  10
ATOM     10  O   UNL     1      27.948   0.072  55.233  1.00  0.00    -0.502 OA
ATOM     11  H   UNL     1      27.939   0.573  56.066  1.00  0.00    +0.293 HD
ENDBRANCH   6  10
BRANCH   3  12
ATOM     12  C   UNL     1      23.071   0.621  52.440  1.00  0.00    +0.047 A 
ATOM     13  C   UNL     1      22.774   1.240  51.238  1.00  0.00    +0.030 A 
ATOM     14  N   UNL     1      21.877   0.111  52.912  1.00  0.00    -0.341 N 
ATOM     15  C   UNL     1      21.389   1.079  50.990  1.00  0.00    +0.047 A 
ATOM     16  C   UNL     1      20.849   0.362  52.036  1.00  0.00    +0.106 A 
ATOM     17  H   UNL     1      21.762  -0.344  53.803  1.00  0.00    +0.168 HD
BRANCH  16  18
ATOM     18  N   UNL     1      19.576  -0.045  52.291  1.00  0.00    -0.354 N 
ATOM     19  C   UNL     1      18.556  -0.019  51.230  1.00  0.00    +0.146 C 
ATOM     20  C   UNL     1      19.189  -0.758  53.519  1.00  0.00    +0.146 C 
ATOM     21  C   UNL     1      17.151  -0.045  51.854  1.00  0.00    +0.181 C 
ATOM     22  C   UNL     1      18.078  -1.779  53.222  1.00  0.00    +0.181 C 
ATOM     23  O   UNL     1      16.890  -1.201  52.664  1.00  0.00    -0.378 OA
ENDBRANCH  16  18
ENDBRANCH   3  12
TORSDOF 4
ENDMDL
MODEL 7
REMARK VINA RESULT:    -6.978      1.641      7.849
REMARK INTER + INTRA:          -9.072
REMARK INTER:                  -8.414
REMARK INTRA:                  -0.658
REMARK UNBOUND:                -0.666
REMARK SMILES O=[N+]([O-])c1cc(-c2ccc(N3CCOCC3)[nH]2)ccc1O
REMARK SMILES IDX 4 1 5 2 6 3 18 4 19 5 20 6 2 7 1 8 3 9 21 10 7 12 8 13 17 14
REMARK SMILES IDX 9 15 10 16 11 18 12 19 16 20 13 21 15 22 14 23
REMARK H PARENT 21 11 17 17
ROOT
ATOM      1  C   UNL     1      18.629  -0.676  52.602  1.00  0.00    +0.311 A 
ATOM      2  C   UNL     1      19.762  -0.932  53.388  1.00  0.00    +0.100 A 
ATOM      3  C   UNL     1      21.005  -0.429  52.991  1.00  0.00    +0.005 A 
ATOM      4  C   UNL     1      21.080   0.330  51.811  1.00  0.00    +0.014 A 
ATOM      5  C   UNL     1      19.943   0.573  51.028  1.00  0.00    +0.054 A 
ATOM      6  C   UNL     1      18.709   0.062  51.422  1.00  0.00    +0.194 A 
ENDROOT
BRANCH   1   7
ATOM      7  N   UNL     1      17.359  -1.207  53.052  1.00  0.00    +0.066 N 
ATOM      8  O   UNL     1      16.425  -0.410  53.214  1.00  0.00    -0.258 OA
ATOM      9  O   UNL     1      17.322  -2.421  53.306  1.00  0.00    -0.258 OA
ENDBRANCH   1   7
BRANCH   6  10
ATOM     10  O   UNL     1      17.611   0.265  50.642  1.00  0.00    -0.502 OA
ATOM     11  H   UNL     1      16.832  -0.152  51.049  1.00  0.00    +0.293 HD
ENDBRANCH   6  10
BRANCH   3  12
ATOM     12  C   UNL     1      22.207  -0.677  53.785  1.00  0.00    +0.047 A 
ATOM     13  C   UNL     1      22.354  -1.144  55.079  1.00  0.00    +0.030 A 
ATOM     14  N   UNL     1      23.484  -0.429  53.321  1.00  0.00    -0.341 N 
ATOM     15  C   UNL     1      23.738  -1.186  55.378  1.00  0.00    +0.047 A 
ATOM     16  C   UNL     1      24.427  -0.750  54.267  1.00  0.00    +0.106 A 
ATOM     17  H   UNL     1      23.697  -0.020  52.426  1.00  0.00    +0.168 HD
BRANCH  16  18
ATOM     18  N   UNL     1      25.757  -0.585  54.036  1.00  0.00    -0.354 N 
ATOM     19  C   UNL     1      26.360  -1.049  52.775  1.00  0.00    +0.146 C 
ATOM     20  C   UNL     1      26.623   0.262  54.872  1.00  0.00    +0.146 C 
ATOM     21  C   UNL     1      27.880  -1.202  52.946  1.00  0.00    +0.181 C 
ATOM     22  C   UNL     1      27.709   0.935  54.015  1.00  0.00    +0.181 C 
ATOM     23  O   UNL     1      28.554   0.011  53.316  1.00  0.00    -0.378 OA
ENDBRANCH  16  18
ENDBRANCH   3  12
TORSDOF 4
ENDMDL
MODEL 8
REMARK VINA RESULT:    -6.917      1.890      8.073
REMARK INTER + INTRA:          -8.999
REMARK INTER:                  -8.338
REMARK INTRA:                  -0.661
REMARK UNBOUND:                -0.666
REMARK SMILES O=[N+]([O-])c1cc(-c2ccc(N3CCOCC3)[nH]2)ccc1O
REMARK SMILES IDX 4 1 5 2 6 3 18 4 19 5 20 6 2 7 1 8 3 9 21 10 7 12 8 13 17 14
REMARK SMILES IDX 9 15 10 16 11 18 12 19 16 20 13 21 15 22 14 23
REMARK H PARENT 21 11 17 17
ROOT
ATOM      1  C   UNL     1      19.676  -0.001  52.533  1.00  0.00    +0.311 A 
ATOM      2  C   UNL     1      21.014   0.348  52.301  1.00  0.00    +0.100 A 
ATOM      3  C   UNL     1      22.022  -0.225  53.083  1.00  0.00    +0.005 A 
ATOM      4  C   UNL     1      21.660  -1.145  54.081  1.00  0.00    +0.014 A 
ATOM      5  C   UNL     1      20.319  -1.480  54.311  1.00  0.00    +0.054 A 
ATOM      6  C   UNL     1      19.318  -0.900  53.536  1.00  0.00    +0.194 A 
ENDROOT
BRANCH   1   7
ATOM      7  N   UNL     1      18.664   0.607  51.695  1.00  0.00    +0.066 N 
ATOM      8  O   UNL     1      18.490   1.830  51.794  1.00  0.00    -0.258 OA
ATOM      9  O   UNL     1      17.997  -0.160  50.983  1.00  0.00    -0.258 OA
ENDBRANCH   1   7
BRANCH   6  10
ATOM     10  O   UNL     1      18.011  -1.195  53.784  1.00  0.00    -0.502 OA
ATOM     11  H   UNL     1      17.486  -1.088  52.973  1.00  0.00    +0.293 HD
ENDBRANCH   6  10
BRANCH   3  12
ATOM     12  C   UNL     1      23.428   0.116  52.869  1.00  0.00    +0.047 A 
ATOM     13  C   UNL     1      24.008   1.215  52.262  1.00  0.00    +0.030 A 
ATOM     14  N   UNL     1      24.471  -0.703  53.254  1.00  0.00    -0.341 N 
ATOM     15  C   UNL     1      25.414   1.049  52.301  1.00  0.00    +0.047 A 
ATOM     16  C   UNL     1      25.685  -0.145  52.935  1.00  0.00    +0.106 A 
ATOM     17  H   UNL     1      24.360  -1.614  53.670  1.00  0.00    +0.168 HD
BRANCH  16  18
ATOM     18  N   UNL     1      26.858  -0.774  53.215  1.00  0.00    -0.354 N 
ATOM     19  C   UNL     1      27.283  -1.947  52.434  1.00  0.00    +0.146 C 
ATOM     20  C   UNL     1      27.882  -0.209  54.109  1.00  0.00    +0.146 C 
ATOM     21  C   UNL     1      28.335  -2.747  53.219  1.00  0.00    +0.181 C 
ATOM     22  C   UNL     1      29.291  -0.587  53.621  1.00  0.00    +0.181 C 
ATOM     23  O   UNL     1      29.519  -2.000  53.540  1.00  0.00    -0.378 OA
ENDBRANCH  16  18
ENDBRANCH   3  12
TORSDOF 4
ENDMDL
MODEL 9
REMARK VINA RESULT:    -6.818      1.788      2.608
REMARK INTER + INTRA:          -8.880
REMARK INTER:                  -8.199
REMARK INTRA:                  -0.681
REMARK UNBOUND:                -0.666
REMARK SMILES O=[N+]([O-])c1cc(-c2ccc(N3CCOCC3)[nH]2)ccc1O
REMARK SMILES IDX 4 1 5 2 6 3 18 4 19 5 20 6 2 7 1 8 3 9 21 10 7 12 8 13 17 14
REMARK SMILES IDX 9 15 10 16 11 18 12 19 16 20 13 21 15 22 14 23
REMARK H PARENT 21 11 17 17
ROOT
ATOM      1  C   UNL     1      25.267   0.548  53.658  1.00  0.00    +0.311 A 
ATOM      2  C   UNL     1      24.053   0.238  53.028  1.00  0.00    +0.100 A 
ATOM      3  C   UNL     1      23.300   1.261  52.442  1.00  0.00    +0.005 A 
ATOM      4  C   UNL     1      23.790   2.576  52.498  1.00  0.00    +0.014 A 
ATOM      5  C   UNL     1      25.000   2.876  53.137  1.00  0.00    +0.054 A 
ATOM      6  C   UNL     1      25.743   1.857  53.727  1.00  0.00    +0.194 A 
ENDROOT
BRANCH   1   7
ATOM      7  N   UNL     1      26.022  -0.541  54.243  1.00  0.00    +0.066 N 
ATOM      8  O   UNL     1      26.160  -0.551  55.474  1.00  0.00    -0.258 OA
ATOM      9  O   UNL     1      26.532  -1.352  53.455  1.00  0.00    -0.258 OA
ENDBRANCH   1   7
BRANCH   6  10
ATOM     10  O   UNL     1      26.900   2.152  54.382  1.00  0.00    -0.502 OA
ATOM     11  H   UNL     1      27.368   2.870  53.924  1.00  0.00    +0.293 HD
ENDBRANCH   6  10
BRANCH   3  12
ATOM     12  C   UNL     1      22.029   0.975  51.778  1.00  0.00    +0.047 A 
ATOM     13  C   UNL     1      21.628   1.179  50.470  1.00  0.00    +0.030 A 
ATOM     14  N   UNL     1      20.937   0.440  52.433  1.00  0.00    -0.341 N 
ATOM     15  C   UNL     1      20.285   0.744  50.347  1.00  0.00    +0.047 A 
ATOM     16  C   UNL     1      19.876   0.274  51.577  1.00  0.00    +0.106 A 
ATOM     17  H   UNL     1      20.904   0.241  53.420  1.00  0.00    +0.168 HD
BRANCH  16  18
ATOM     18  N   UNL     1      18.688  -0.236  52.000  1.00  0.00    -0.354 N 
ATOM     19  C   UNL     1      17.543  -0.329  51.079  1.00  0.00    +0.146 C 
ATOM     20  C   UNL     1      18.526  -0.947  53.279  1.00  0.00    +0.146 C 
ATOM     21  C   UNL     1      16.237  -0.462  51.879  1.00  0.00    +0.181 C 
ATOM     22  C   UNL     1      17.483  -2.070  53.143  1.00  0.00    +0.181 C 
ATOM     23  O   UNL     1      16.187  -1.614  52.734  1.00  0.00    -0.378 OA
ENDBRANCH  16  18
ENDBRANCH   3  12
TORSDOF 4
ENDMDL
