MODEL 1
REMARK VINA RESULT:    -6.254      0.000      0.000
REMARK INTER + INTRA:          -7.530
REMARK INTER:                  -7.351
REMARK INTRA:                  -0.179
REMARK UNBOUND:                -0.179
REMARK SMILES N#CC(C#N)=C(N)C(C#N)=C(N)C(C#N)=C(C#N)C#N
REMARK SMILES IDX 1 1 2 2 3 3 4 4 5 5 6 6 7 7 8 10 9 11 11 12 10 13 12 14
REMARK SMILES IDX 13 17 14 18 16 19 15 20 17 21 19 22 18 23 20 24
REMARK H PARENT 7 8 7 9 12 15 12 16
ROOT
ATOM      1  N   UNL     1      22.557  -1.757  55.408  1.00  0.00    -0.192 NA
ATOM      2  C   UNL     1      22.478  -0.879  54.654  1.00  0.00    +0.113 C 
ATOM      3  C   UNL     1      22.426   0.200  53.725  1.00  0.00    +0.153 C 
ATOM      4  C   UNL     1      21.156   0.808  53.512  1.00  0.00    +0.113 C 
ATOM      5  N   UNL     1      20.136   1.316  53.297  1.00  0.00    -0.192 NA
ATOM      6  C   UNL     1      23.542   0.586  53.049  1.00  0.00    +0.081 C 
ENDROOT
BRANCH   6   7
ATOM      7  N   UNL     1      24.783  -0.039  53.164  1.00  0.00    -0.396 N 
ATOM      8  H   UNL     1      25.496   0.267  52.498  1.00  0.00    +0.156 HD
ATOM      9  H   UNL     1      25.165  -0.134  54.107  1.00  0.00    +0.156 HD
ENDBRANCH   6   7
BRANCH   6  10
ATOM     10  C   UNL     1      23.500   1.702  52.071  1.00  0.00    +0.101 C 
ATOM     11  C   UNL     1      22.800   1.448  50.845  1.00  0.00    +0.104 C 
ATOM     12  C   UNL     1      24.037   2.927  52.333  1.00  0.00    +0.072 C 
ATOM     13  N   UNL     1      22.218   1.292  49.856  1.00  0.00    -0.192 NA
BRANCH  12  14
ATOM     14  N   UNL     1      24.644   3.274  53.533  1.00  0.00    -0.396 N 
ATOM     15  H   UNL     1      24.188   2.901  54.369  1.00  0.00    +0.156 HD
ATOM     16  H   UNL     1      25.655   3.137  53.569  1.00  0.00    +0.156 HD
ENDBRANCH  12  14
BRANCH  12  17
ATOM     17  C   UNL     1      23.915   4.044  51.372  1.00  0.00    +0.105 C 
ATOM     18  C   UNL     1      22.732   4.841  51.486  1.00  0.00    +0.104 C 
ATOM     19  C   UNL     1      24.839   4.282  50.413  1.00  0.00    +0.149 C 
ATOM     20  N   UNL     1      21.759   5.463  51.579  1.00  0.00    -0.192 NA
ATOM     21  C   UNL     1      26.001   3.464  50.309  1.00  0.00    +0.112 C 
ATOM     22  C   UNL     1      24.692   5.340  49.473  1.00  0.00    +0.112 C 
ATOM     23  N   UNL     1      26.938   2.781  50.292  1.00  0.00    -0.192 NA
ATOM     24  N   UNL     1      24.565   6.197  48.702  1.00  0.00    -0.192 NA
ENDBRANCH  12  17
ENDBRANCH   6  10
TORSDOF 4
ENDMDL
MODEL 2
REMARK VINA RESULT:    -6.220      1.635      2.562
REMARK INTER + INTRA:          -7.489
REMARK INTER:                  -7.266
REMARK INTRA:                  -0.224
REMARK UNBOUND:                -0.179
REMARK SMILES N#CC(C#N)=C(N)C(C#N)=C(N)C(C#N)=C(C#N)C#N
REMARK SMILES IDX 1 1 2 2 3 3 4 4 5 5 6 6 7 7 8 10 9 11 11 12 10 13 12 14
REMARK SMILES IDX 13 17 14 18 16 19 15 20 17 21 19 22 18 23 20 24
REMARK H PARENT 7 8 7 9 12 15 12 16
ROOT
ATOM      1  N   UNL     1      26.500  -1.257  53.895  1.00  0.00    -0.192 NA
ATOM      2  C   UNL     1      25.637  -0.567  53.543  1.00  0.00    +0.113 C 
ATOM      3  C   UNL     1      24.608   0.309  53.092  1.00  0.00    +0.153 C 
ATOM      4  C   UNL     1      23.294   0.068  53.586  1.00  0.00    +0.113 C 
ATOM      5  N   UNL     1      22.207  -0.108  53.950  1.00  0.00    -0.192 NA
ATOM      6  C   UNL     1      24.880   1.295  52.195  1.00  0.00    +0.081 C 
ENDROOT
BRANCH   6   7
ATOM      7  N   UNL     1      26.133   1.508  51.623  1.00  0.00    -0.396 N 
ATOM      8  H   UNL     1      26.823   1.964  52.225  1.00  0.00    +0.156 HD
ATOM      9  H   UNL     1      26.544   0.726  51.108  1.00  0.00    +0.156 HD
ENDBRANCH   6   7
BRANCH   6  10
ATOM     10  C   UNL     1      23.815   2.208  51.710  1.00  0.00    +0.101 C 
ATOM     11  C   UNL     1      22.997   1.718  50.637  1.00  0.00    +0.104 C 
ATOM     12  C   UNL     1      23.572   3.421  52.280  1.00  0.00    +0.072 C 
ATOM     13  N   UNL     1      22.297   1.346  49.793  1.00  0.00    -0.192 NA
BRANCH  12  14
ATOM     14  N   UNL     1      24.259   3.919  53.381  1.00  0.00    -0.396 N 
ATOM     15  H   UNL     1      23.664   4.224  54.156  1.00  0.00    +0.156 HD
ATOM     16  H   UNL     1      25.034   3.343  53.711  1.00  0.00    +0.156 HD
ENDBRANCH  12  14
BRANCH  12  17
ATOM     17  C   UNL     1      22.456   4.278  51.827  1.00  0.00    +0.105 C 
ATOM     18  C   UNL     1      21.146   3.860  52.222  1.00  0.00    +0.104 C 
ATOM     19  C   UNL     1      22.647   5.369  51.050  1.00  0.00    +0.149 C 
ATOM     20  N   UNL     1      20.091   3.496  52.532  1.00  0.00    -0.192 NA
ATOM     21  C   UNL     1      23.961   5.755  50.655  1.00  0.00    +0.112 C 
ATOM     22  C   UNL     1      21.561   6.166  50.592  1.00  0.00    +0.112 C 
ATOM     23  N   UNL     1      25.055   6.035  50.390  1.00  0.00    -0.192 NA
ATOM     24  N   UNL     1      20.673   6.807  50.212  1.00  0.00    -0.192 NA
ENDBRANCH  12  17
ENDBRANCH   6  10
TORSDOF 4
ENDMDL
MODEL 3
REMARK VINA RESULT:    -6.169      2.256      3.781
REMARK INTER + INTRA:          -7.430
REMARK INTER:                  -7.220
REMARK INTRA:                  -0.210
REMARK UNBOUND:                -0.179
REMARK SMILES N#CC(C#N)=C(N)C(C#N)=C(N)C(C#N)=C(C#N)C#N
REMARK SMILES IDX 1 1 2 2 3 3 4 4 5 5 6 6 7 7 8 10 9 11 11 12 10 13 12 14
REMARK SMILES IDX 13 17 14 18 16 19 15 20 17 21 19 22 18 23 20 24
REMARK H PARENT 7 8 7 9 12 15 12 16
ROOT
ATOM      1  N   UNL     1      17.572  -2.363  53.878  1.00  0.00    -0.192 NA
ATOM      2  C   UNL     1      18.208  -1.549  53.352  1.00  0.00    +0.113 C 
ATOM      3  C   UNL     1      19.011  -0.541  52.744  1.00  0.00    +0.153 C 
ATOM      4  C   UNL     1      18.632  -0.113  51.440  1.00  0.00    +0.113 C 
ATOM      5  N   UNL     1      18.367   0.249  50.371  1.00  0.00    -0.192 NA
ATOM      6  C   UNL     1      20.114  -0.057  53.379  1.00  0.00    +0.081 C 
ENDROOT
BRANCH   6   7
ATOM      7  N   UNL     1      20.567  -0.513  54.616  1.00  0.00    -0.396 N 
ATOM      8  H   UNL     1      21.040  -1.421  54.606  1.00  0.00    +0.156 HD
ATOM      9  H   UNL     1      21.061   0.161  55.203  1.00  0.00    +0.156 HD
ENDBRANCH   6   7
BRANCH   6  10
ATOM     10  C   UNL     1      20.965   0.984  52.754  1.00  0.00    +0.101 C 
ATOM     11  C   UNL     1      20.425   2.313  52.720  1.00  0.00    +0.104 C 
ATOM     12  C   UNL     1      22.220   0.725  52.290  1.00  0.00    +0.072 C 
ATOM     13  N   UNL     1      20.035   3.404  52.701  1.00  0.00    -0.192 NA
BRANCH  12  14
ATOM     14  N   UNL     1      22.845  -0.513  52.375  1.00  0.00    -0.396 N 
ATOM     15  H   UNL     1      22.291  -1.243  52.830  1.00  0.00    +0.156 HD
ATOM     16  H   UNL     1      23.267  -0.851  51.510  1.00  0.00    +0.156 HD
ENDBRANCH  12  14
BRANCH  12  17
ATOM     17  C   UNL     1      23.077   1.798  51.740  1.00  0.00    +0.105 C 
ATOM     18  C   UNL     1      23.958   2.433  52.672  1.00  0.00    +0.104 C 
ATOM     19  C   UNL     1      23.011   2.190  50.448  1.00  0.00    +0.149 C 
ATOM     20  N   UNL     1      24.649   2.951  53.444  1.00  0.00    -0.192 NA
ATOM     21  C   UNL     1      22.113   1.553  49.543  1.00  0.00    +0.112 C 
ATOM     22  C   UNL     1      23.817   3.247  49.940  1.00  0.00    +0.112 C 
ATOM     23  N   UNL     1      21.383   0.978  48.848  1.00  0.00    -0.192 NA
ATOM     24  N   UNL     1      24.468   4.116  49.532  1.00  0.00    -0.192 NA
ENDBRANCH  12  17
ENDBRANCH   6  10
TORSDOF 4
ENDMDL
MODEL 4
REMARK VINA RESULT:    -6.159      1.864      3.686
REMARK INTER + INTRA:          -7.419
REMARK INTER:                  -7.316
REMARK INTRA:                  -0.102
REMARK UNBOUND:                -0.179
REMARK SMILES N#CC(C#N)=C(N)C(C#N)=C(N)C(C#N)=C(C#N)C#N
REMARK SMILES IDX 1 1 2 2 3 3 4 4 5 5 6 6 7 7 8 10 9 11 11 12 10 13 12 14
REMARK SMILES IDX 13 17 14 18 16 19 15 20 17 21 19 22 18 23 20 24
REMARK H PARENT 7 8 7 9 12 15 12 16
ROOT
ATOM      1  N   UNL     1      26.286  -1.254  53.910  1.00  0.00    -0.192 NA
ATOM      2  C   UNL     1      25.946  -0.321  53.310  1.00  0.00    +0.113 C 
ATOM      3  C   UNL     1      25.487   0.809  52.574  1.00  0.00    +0.153 C 
ATOM      4  C   UNL     1      26.480   1.654  52.003  1.00  0.00    +0.113 C 
ATOM      5  N   UNL     1      27.259   2.378  51.538  1.00  0.00    -0.192 NA
ATOM      6  C   UNL     1      24.157   1.076  52.473  1.00  0.00    +0.081 C 
ENDROOT
BRANCH   6   7
ATOM      7  N   UNL     1      23.159   0.324  53.090  1.00  0.00    -0.396 N 
ATOM      8  H   UNL     1      23.308   0.119  54.081  1.00  0.00    +0.156 HD
ATOM      9  H   UNL     1      22.192   0.599  52.905  1.00  0.00    +0.156 HD
ENDBRANCH   6   7
BRANCH   6  10
ATOM     10  C   UNL     1      23.665   2.255  51.718  1.00  0.00    +0.101 C 
ATOM     11  C   UNL     1      23.074   1.991  50.438  1.00  0.00    +0.104 C 
ATOM     12  C   UNL     1      23.705   3.520  52.225  1.00  0.00    +0.072 C 
ATOM     13  N   UNL     1      22.564   1.815  49.413  1.00  0.00    -0.192 NA
BRANCH  12  14
ATOM     14  N   UNL     1      24.173   3.839  53.494  1.00  0.00    -0.396 N 
ATOM     15  H   UNL     1      25.070   3.412  53.740  1.00  0.00    +0.156 HD
ATOM     16  H   UNL     1      24.157   4.832  53.730  1.00  0.00    +0.156 HD
ENDBRANCH  12  14
BRANCH  12  17
ATOM     17  C   UNL     1      23.139   4.667  51.484  1.00  0.00    +0.105 C 
ATOM     18  C   UNL     1      24.086   5.531  50.849  1.00  0.00    +0.104 C 
ATOM     19  C   UNL     1      21.810   4.918  51.438  1.00  0.00    +0.149 C 
ATOM     20  N   UNL     1      24.868   6.231  50.359  1.00  0.00    -0.192 NA
ATOM     21  C   UNL     1      20.887   4.052  52.094  1.00  0.00    +0.112 C 
ATOM     22  C   UNL     1      21.281   6.045  50.750  1.00  0.00    +0.112 C 
ATOM     23  N   UNL     1      20.184   3.297  52.623  1.00  0.00    -0.192 NA
ATOM     24  N   UNL     1      20.853   6.970  50.197  1.00  0.00    -0.192 NA
ENDBRANCH  12  17
ENDBRANCH   6  10
TORSDOF 4
ENDMDL
MODEL 5
REMARK VINA RESULT:    -6.141      1.942      3.546
REMARK INTER + INTRA:          -7.397
REMARK INTER:                  -7.143
REMARK INTRA:                  -0.255
REMARK UNBOUND:                -0.179
REMARK SMILES N#CC(C#N)=C(N)C(C#N)=C(N)C(C#N)=C(C#N)C#N
REMARK SMILES IDX 1 1 2 2 3 3 4 4 5 5 6 6 7 7 8 10 9 11 11 12 10 13 12 14
REMARK SMILES IDX 13 17 14 18 16 19 15 20 17 21 19 22 18 23 20 24
REMARK H PARENT 7 8 7 9 12 15 12 16
ROOT
ATOM      1  N   UNL     1      27.783  -0.325  52.872  1.00  0.00    -0.192 NA
ATOM      2  C   UNL     1      27.018   0.427  52.431  1.00  0.00    +0.113 C 
ATOM      3  C   UNL     1      26.046   1.326  51.907  1.00  0.00    +0.153 C 
ATOM      4  C   UNL     1      26.511   2.326  51.005  1.00  0.00    +0.113 C 
ATOM      5  N   UNL     1      26.853   3.166  50.283  1.00  0.00    -0.192 NA
ATOM      6  C   UNL     1      24.745   1.245  52.298  1.00  0.00    +0.081 C 
ENDROOT
BRANCH   6   7
ATOM      7  N   UNL     1      24.267   0.339  53.243  1.00  0.00    -0.396 N 
ATOM      8  H   UNL     1      23.949   0.747  54.125  1.00  0.00    +0.156 HD
ATOM      9  H   UNL     1      23.623  -0.381  52.908  1.00  0.00    +0.156 HD
ENDBRANCH   6   7
BRANCH   6  10
ATOM     10  C   UNL     1      23.723   2.181  51.767  1.00  0.00    +0.101 C 
ATOM     11  C   UNL     1      22.921   1.699  50.679  1.00  0.00    +0.104 C 
ATOM     12  C   UNL     1      23.501   3.411  52.312  1.00  0.00    +0.072 C 
ATOM     13  N   UNL     1      22.234   1.335  49.821  1.00  0.00    -0.192 NA
BRANCH  12  14
ATOM     14  N   UNL     1      24.171   3.906  53.424  1.00  0.00    -0.396 N 
ATOM     15  H   UNL     1      25.144   3.599  53.511  1.00  0.00    +0.156 HD
ATOM     16  H   UNL     1      24.085   4.911  53.576  1.00  0.00    +0.156 HD
ENDBRANCH  12  14
BRANCH  12  17
ATOM     17  C   UNL     1      22.426   4.293  51.813  1.00  0.00    +0.105 C 
ATOM     18  C   UNL     1      21.090   3.901  52.143  1.00  0.00    +0.104 C 
ATOM     19  C   UNL     1      22.675   5.386  51.054  1.00  0.00    +0.149 C 
ATOM     20  N   UNL     1      20.014   3.556  52.401  1.00  0.00    -0.192 NA
ATOM     21  C   UNL     1      24.013   5.747  50.724  1.00  0.00    +0.112 C 
ATOM     22  C   UNL     1      21.628   6.207  50.551  1.00  0.00    +0.112 C 
ATOM     23  N   UNL     1      25.124   6.006  50.512  1.00  0.00    -0.192 NA
ATOM     24  N   UNL     1      20.772   6.869  50.135  1.00  0.00    -0.192 NA
ENDBRANCH  12  17
ENDBRANCH   6  10
TORSDOF 4
ENDMDL
MODEL 6
REMARK VINA RESULT:    -6.123      1.667      5.662
REMARK INTER + INTRA:          -7.376
REMARK INTER:                  -6.994
REMARK INTRA:                  -0.382
REMARK UNBOUND:                -0.179
REMARK SMILES N#CC(C#N)=C(N)C(C#N)=C(N)C(C#N)=C(C#N)C#N
REMARK SMILES IDX 1 1 2 2 3 3 4 4 5 5 6 6 7 7 8 10 9 11 11 12 10 13 12 14
REMARK SMILES IDX 13 17 14 18 16 19 15 20 17 21 19 22 18 23 20 24
REMARK H PARENT 7 8 7 9 12 15 12 16
ROOT
ATOM      1  N   UNL     1      26.529   7.924  49.815  1.00  0.00    -0.192 NA
ATOM      2  C   UNL     1      25.685   7.171  50.068  1.00  0.00    +0.113 C 
ATOM      3  C   UNL     1      24.675   6.212  50.368  1.00  0.00    +0.153 C 
ATOM      4  C   UNL     1      23.361   6.709  50.598  1.00  0.00    +0.113 C 
ATOM      5  N   UNL     1      22.281   7.076  50.811  1.00  0.00    -0.192 NA
ATOM      6  C   UNL     1      24.983   4.890  50.470  1.00  0.00    +0.081 C 
ENDROOT
BRANCH   6   7
ATOM      7  N   UNL     1      26.271   4.374  50.337  1.00  0.00    -0.396 N 
ATOM      8  H   UNL     1      26.979   5.034  50.002  1.00  0.00    +0.156 HD
ATOM      9  H   UNL     1      26.623   3.807  51.112  1.00  0.00    +0.156 HD
ENDBRANCH   6   7
BRANCH   6  10
ATOM     10  C   UNL     1      23.943   3.881  50.791  1.00  0.00    +0.101 C 
ATOM     11  C   UNL     1      23.359   3.191  49.676  1.00  0.00    +0.104 C 
ATOM     12  C   UNL     1      23.595   3.569  52.071  1.00  0.00    +0.072 C 
ATOM     13  N   UNL     1      22.886   2.592  48.805  1.00  0.00    -0.192 NA
BRANCH  12  14
ATOM     14  N   UNL     1      24.184   4.125  53.199  1.00  0.00    -0.396 N 
ATOM     15  H   UNL     1      24.624   3.450  53.830  1.00  0.00    +0.156 HD
ATOM     16  H   UNL     1      24.794   4.924  53.027  1.00  0.00    +0.156 HD
ENDBRANCH  12  14
BRANCH  12  17
ATOM     17  C   UNL     1      22.611   2.505  52.365  1.00  0.00    +0.105 C 
ATOM     18  C   UNL     1      21.243   2.921  52.438  1.00  0.00    +0.104 C 
ATOM     19  C   UNL     1      22.974   1.223  52.596  1.00  0.00    +0.149 C 
ATOM     20  N   UNL     1      20.144   3.279  52.513  1.00  0.00    -0.192 NA
ATOM     21  C   UNL     1      24.344   0.836  52.535  1.00  0.00    +0.112 C 
ATOM     22  C   UNL     1      22.019   0.216  52.912  1.00  0.00    +0.112 C 
ATOM     23  N   UNL     1      25.471   0.577  52.445  1.00  0.00    -0.192 NA
ATOM     24  N   UNL     1      21.240  -0.600  53.180  1.00  0.00    -0.192 NA
ENDBRANCH  12  17
ENDBRANCH   6  10
TORSDOF 4
ENDMDL
MODEL 7
REMARK VINA RESULT:    -6.053      1.997      5.803
REMARK INTER + INTRA:          -7.294
REMARK INTER:                  -6.907
REMARK INTRA:                  -0.387
REMARK UNBOUND:                -0.179
REMARK SMILES N#CC(C#N)=C(N)C(C#N)=C(N)C(C#N)=C(C#N)C#N
REMARK SMILES IDX 1 1 2 2 3 3 4 4 5 5 6 6 7 7 8 10 9 11 11 12 10 13 12 14
REMARK SMILES IDX 13 17 14 18 16 19 15 20 17 21 19 22 18 23 20 24
REMARK H PARENT 7 8 7 9 12 15 12 16
ROOT
ATOM      1  N   UNL     1      28.556   5.157  48.487  1.00  0.00    -0.192 NA
ATOM      2  C   UNL     1      27.435   5.004  48.739  1.00  0.00    +0.113 C 
ATOM      3  C   UNL     1      26.066   4.772  49.058  1.00  0.00    +0.153 C 
ATOM      4  C   UNL     1      25.145   5.812  48.742  1.00  0.00    +0.113 C 
ATOM      5  N   UNL     1      24.367   6.642  48.518  1.00  0.00    -0.192 NA
ATOM      6  C   UNL     1      25.683   3.623  49.678  1.00  0.00    +0.081 C 
ENDROOT
BRANCH   6   7
ATOM      7  N   UNL     1      26.565   2.621  50.081  1.00  0.00    -0.396 N 
ATOM      8  H   UNL     1      26.201   1.666  50.033  1.00  0.00    +0.156 HD
ATOM      9  H   UNL     1      27.521   2.677  49.724  1.00  0.00    +0.156 HD
ENDBRANCH   6   7
BRANCH   6  10
ATOM     10  C   UNL     1      24.263   3.373  50.025  1.00  0.00    +0.101 C 
ATOM     11  C   UNL     1      23.426   2.879  48.968  1.00  0.00    +0.104 C 
ATOM     12  C   UNL     1      23.776   3.537  51.287  1.00  0.00    +0.072 C 
ATOM     13  N   UNL     1      22.727   2.452  48.150  1.00  0.00    -0.192 NA
BRANCH  12  14
ATOM     14  N   UNL     1      24.546   3.918  52.378  1.00  0.00    -0.396 N 
ATOM     15  H   UNL     1      25.271   4.611  52.171  1.00  0.00    +0.156 HD
ATOM     16  H   UNL     1      24.023   4.168  53.218  1.00  0.00    +0.156 HD
ENDBRANCH  12  14
BRANCH  12  17
ATOM     17  C   UNL     1      22.374   3.208  51.623  1.00  0.00    +0.105 C 
ATOM     18  C   UNL     1      22.114   1.840  51.953  1.00  0.00    +0.104 C 
ATOM     19  C   UNL     1      21.382   4.127  51.583  1.00  0.00    +0.149 C 
ATOM     20  N   UNL     1      21.918   0.724  52.197  1.00  0.00    -0.192 NA
ATOM     21  C   UNL     1      21.663   5.480  51.234  1.00  0.00    +0.112 C 
ATOM     22  C   UNL     1      20.031   3.789  51.875  1.00  0.00    +0.112 C 
ATOM     23  N   UNL     1      21.958   6.570  50.970  1.00  0.00    -0.192 NA
ATOM     24  N   UNL     1      18.930   3.508  52.104  1.00  0.00    -0.192 NA
ENDBRANCH  12  17
ENDBRANCH   6  10
TORSDOF 4
ENDMDL
MODEL 8
REMARK VINA RESULT:    -6.031      1.631      5.366
REMARK INTER + INTRA:          -7.268
REMARK INTER:                  -7.150
REMARK INTRA:                  -0.118
REMARK UNBOUND:                -0.179
REMARK SMILES N#CC(C#N)=C(N)C(C#N)=C(N)C(C#N)=C(C#N)C#N
REMARK SMILES IDX 1 1 2 2 3 3 4 4 5 5 6 6 7 7 8 10 9 11 11 12 10 13 12 14
REMARK SMILES IDX 13 17 14 18 16 19 15 20 17 21 19 22 18 23 20 24
REMARK H PARENT 7 8 7 9 12 15 12 16
ROOT
ATOM      1  N   UNL     1      22.090   7.281  50.632  1.00  0.00    -0.192 NA
ATOM      2  C   UNL     1      22.539   6.216  50.720  1.00  0.00    +0.113 C 
ATOM      3  C   UNL     1      23.064   4.900  50.864  1.00  0.00    +0.153 C 
ATOM      4  C   UNL     1      24.199   4.567  50.070  1.00  0.00    +0.113 C 
ATOM      5  N   UNL     1      25.111   4.252  49.426  1.00  0.00    -0.192 NA
ATOM      6  C   UNL     1      22.467   4.001  51.693  1.00  0.00    +0.081 C 
ENDROOT
BRANCH   6   7
ATOM      7  N   UNL     1      21.305   4.260  52.419  1.00  0.00    -0.396 N 
ATOM      8  H   UNL     1      20.466   3.770  52.099  1.00  0.00    +0.156 HD
ATOM      9  H   UNL     1      21.385   4.243  53.438  1.00  0.00    +0.156 HD
ENDBRANCH   6   7
BRANCH   6  10
ATOM     10  C   UNL     1      22.997   2.624  51.844  1.00  0.00    +0.101 C 
ATOM     11  C   UNL     1      22.449   1.630  50.966  1.00  0.00    +0.104 C 
ATOM     12  C   UNL     1      23.995   2.314  52.719  1.00  0.00    +0.072 C 
ATOM     13  N   UNL     1      22.052   0.806  50.255  1.00  0.00    -0.192 NA
BRANCH  12  14
ATOM     14  N   UNL     1      24.639   3.240  53.530  1.00  0.00    -0.396 N 
ATOM     15  H   UNL     1      25.559   3.536  53.196  1.00  0.00    +0.156 HD
ATOM     16  H   UNL     1      24.073   4.039  53.818  1.00  0.00    +0.156 HD
ENDBRANCH  12  14
BRANCH  12  17
ATOM     17  C   UNL     1      24.558   0.949  52.796  1.00  0.00    +0.105 C 
ATOM     18  C   UNL     1      23.704  -0.049  53.363  1.00  0.00    +0.104 C 
ATOM     19  C   UNL     1      25.817   0.658  52.396  1.00  0.00    +0.149 C 
ATOM     20  N   UNL     1      23.007  -0.840  53.844  1.00  0.00    -0.192 NA
ATOM     21  C   UNL     1      26.656   1.673  51.850  1.00  0.00    +0.112 C 
ATOM     22  C   UNL     1      26.358  -0.653  52.508  1.00  0.00    +0.112 C 
ATOM     23  N   UNL     1      27.280   2.536  51.389  1.00  0.00    -0.192 NA
ATOM     24  N   UNL     1      26.800  -1.720  52.610  1.00  0.00    -0.192 NA
ENDBRANCH  12  17
ENDBRANCH   6  10
TORSDOF 4
ENDMDL
MODEL 9
REMARK VINA RESULT:    -5.798      1.197      6.215
REMARK INTER + INTRA:          -6.994
REMARK INTER:                  -6.727
REMARK INTRA:                  -0.267
REMARK UNBOUND:                -0.179
REMARK SMILES N#CC(C#N)=C(N)C(C#N)=C(N)C(C#N)=C(C#N)C#N
REMARK SMILES IDX 1 1 2 2 3 3 4 4 5 5 6 6 7 7 8 10 9 11 11 12 10 13 12 14
REMARK SMILES IDX 13 17 14 18 16 19 15 20 17 21 19 22 18 23 20 24
REMARK H PARENT 7 8 7 9 12 15 12 16
ROOT
ATOM      1  N   UNL     1      25.671   7.431  49.157  1.00  0.00    -0.192 NA
ATOM      2  C   UNL     1      25.419   6.359  49.521  1.00  0.00    +0.113 C 
ATOM      3  C   UNL     1      25.071   5.058  49.986  1.00  0.00    +0.153 C 
ATOM      4  C   UNL     1      26.076   4.053  49.903  1.00  0.00    +0.113 C 
ATOM      5  N   UNL     1      26.861   3.202  49.834  1.00  0.00    -0.192 NA
ATOM      6  C   UNL     1      23.816   4.798  50.443  1.00  0.00    +0.081 C 
ENDROOT
BRANCH   6   7
ATOM      7  N   UNL     1      22.780   5.732  50.458  1.00  0.00    -0.396 N 
ATOM      8  H   UNL     1      23.065   6.709  50.355  1.00  0.00    +0.156 HD
ATOM      9  H   UNL     1      21.958   5.518  49.890  1.00  0.00    +0.156 HD
ENDBRANCH   6   7
BRANCH   6  10
ATOM     10  C   UNL     1      23.436   3.446  50.920  1.00  0.00    +0.101 C 
ATOM     11  C   UNL     1      22.913   2.545  49.933  1.00  0.00    +0.104 C 
ATOM     12  C   UNL     1      23.627   3.042  52.208  1.00  0.00    +0.072 C 
ATOM     13  N   UNL     1      22.515   1.780  49.160  1.00  0.00    -0.192 NA
BRANCH  12  14
ATOM     14  N   UNL     1      24.215   3.825  53.194  1.00  0.00    -0.396 N 
ATOM     15  H   UNL     1      24.172   4.833  53.024  1.00  0.00    +0.156 HD
ATOM     16  H   UNL     1      23.946   3.598  54.152  1.00  0.00    +0.156 HD
ENDBRANCH  12  14
BRANCH  12  17
ATOM     17  C   UNL     1      23.310   1.664  52.640  1.00  0.00    +0.105 C 
ATOM     18  C   UNL     1      24.417   0.760  52.709  1.00  0.00    +0.104 C 
ATOM     19  C   UNL     1      22.049   1.260  52.916  1.00  0.00    +0.149 C 
ATOM     20  N   UNL     1      25.322   0.037  52.738  1.00  0.00    -0.192 NA
ATOM     21  C   UNL     1      20.960   2.175  52.823  1.00  0.00    +0.112 C 
ATOM     22  C   UNL     1      21.754  -0.078  53.298  1.00  0.00    +0.112 C 
ATOM     23  N   UNL     1      20.119   2.971  52.758  1.00  0.00    -0.192 NA
ATOM     24  N   UNL     1      21.516  -1.172  53.598  1.00  0.00    -0.192 NA
ENDBRANCH  12  17
ENDBRANCH   6  10
TORSDOF 4
ENDMDL
