REMARK SMILES Cc1cc(C)c(N(C(=O)c2ccccn2)c2ccccc2)[nH]1
REMARK SMILES IDX 7 1 6 2 2 3 3 4 22 5 4 6 1 7 5 9 8 10 9 11 10 12 11 13 15 14
REMARK SMILES IDX 12 15 14 16 13 17 16 18 17 19 21 20 18 21 20 22 19 23
REMARK H PARENT 22 8
ROOT
ATOM      1  N   UNL     1       0.297   0.832   0.037  1.00  0.00    -0.261 N 
ENDROOT
BRANCH   1   2
ATOM      2  C   UNL     1      -0.628  -0.125  -0.397  1.00  0.00    +0.120 A 
ATOM      3  C   UNL     1      -2.522  -1.354  -0.265  1.00  0.00    +0.014 A 
ATOM      4  C   UNL     1      -1.817  -1.787  -1.366  1.00  0.00    +0.028 A 
ATOM      5  N   UNL     1      -1.790  -0.348   0.310  1.00  0.00    -0.345 N 
ATOM      6  C   UNL     1      -0.619  -1.018  -1.462  1.00  0.00    -0.008 A 
ATOM      7  C   UNL     1      -3.815  -1.801   0.305  1.00  0.00    +0.064 C 
ATOM      8  H   UNL     1      -2.030   0.141   1.162  1.00  0.00    +0.168 HD
ATOM      9  C   UNL     1       0.383  -1.153  -2.553  1.00  0.00    +0.048 C 
ENDBRANCH   1   2
BRANCH   1  10
ATOM     10  C   UNL     1       1.679   0.565  -0.024  1.00  0.00    +0.282 C 
ATOM     11  O   UNL     1       2.545   1.419  -0.242  1.00  0.00    -0.266 OA
BRANCH  10  12
ATOM     12  C   UNL     1       2.158  -0.829   0.258  1.00  0.00    +0.129 A 
ATOM     13  C   UNL     1       3.342  -1.265  -0.330  1.00  0.00    +0.034 A 
ATOM     14  N   UNL     1       1.446  -1.579   1.142  1.00  0.00    -0.251 NA
ATOM     15  C   UNL     1       3.797  -2.547  -0.035  1.00  0.00    +0.004 A 
ATOM     16  C   UNL     1       1.911  -2.819   1.400  1.00  0.00    +0.112 A 
ATOM     17  C   UNL     1       3.066  -3.342   0.842  1.00  0.00    +0.020 A 
ENDBRANCH  10  12
ENDBRANCH   1  10
BRANCH   1  18
ATOM     18  C   UNL     1      -0.190   2.143   0.380  1.00  0.00    +0.051 A 
ATOM     19  C   UNL     1      -1.411   2.642  -0.111  1.00  0.00    +0.027 A 
ATOM     20  C   UNL     1       0.556   2.977   1.229  1.00  0.00    +0.027 A 
ATOM     21  C   UNL     1      -1.873   3.913   0.248  1.00  0.00    +0.002 A 
ATOM     22  C   UNL     1       0.094   4.247   1.590  1.00  0.00    +0.002 A 
ATOM     23  C   UNL     1      -1.122   4.714   1.102  1.00  0.00    +0.000 A 
ENDBRANCH   1  18
TORSDOF 4
