REMARK SMILES C[N+](C)(C)C[C@H](O)CO[C@H]1CCCN1c1ccc(C#N)cc1F
REMARK SMILES IDX 8 1 6 2 5 3 2 4 1 5 3 6 4 7 7 8 9 10 10 11 11 12 14 13 12 14
REMARK SMILES IDX 13 15 15 16 16 17 22 18 17 19 21 20 18 21 19 22 20 23 23 24
REMARK H PARENT 7 9
ROOT
ATOM      1  C   UNL     1      -1.074   1.208  -1.694  1.00  0.00    +0.200 C 
ENDROOT
BRANCH   1   2
ATOM      2  C   UNL     1      -1.495   1.913  -0.395  1.00  0.00    +0.195 C 
BRANCH   2   3
ATOM      3  C   UNL     1      -1.714   0.861   0.723  1.00  0.00    +0.297 C 
BRANCH   3   4
ATOM      4  N   UNL     1      -1.926   1.446   2.151  1.00  0.00    -0.329 N 
ATOM      5  C   UNL     1      -0.672   2.149   2.644  1.00  0.00    +0.334 C 
ATOM      6  C   UNL     1      -3.107   2.408   2.194  1.00  0.00    +0.334 C 
ATOM      7  C   UNL     1      -2.225   0.274   3.088  1.00  0.00    +0.334 C 
ENDBRANCH   3   4
ENDBRANCH   2   3
BRANCH   2   8
ATOM      8  O   UNL     1      -2.695   2.656  -0.617  1.00  0.00    -0.385 OA
ATOM      9  H   UNL     1      -2.531   3.291  -1.342  1.00  0.00    +0.211 HD
ENDBRANCH   2   8
ENDBRANCH   1   2
BRANCH   1  10
ATOM     10  O   UNL     1       0.126   0.498  -1.440  1.00  0.00    -0.355 OA
BRANCH  10  11
ATOM     11  C   UNL     1       0.617  -0.216  -2.567  1.00  0.00    +0.215 C 
ATOM     12  C   UNL     1       1.530   0.665  -3.420  1.00  0.00    +0.057 C 
ATOM     13  N   UNL     1       1.448  -1.377  -2.186  1.00  0.00    -0.344 N 
ATOM     14  C   UNL     1       2.457  -0.345  -4.065  1.00  0.00    +0.026 C 
ATOM     15  C   UNL     1       2.730  -1.306  -2.914  1.00  0.00    +0.119 C 
BRANCH  13  16
ATOM     16  C   UNL     1       1.559  -1.666  -0.823  1.00  0.00    +0.075 A 
ATOM     17  C   UNL     1       0.871  -2.784  -0.333  1.00  0.00    +0.030 A 
ATOM     18  C   UNL     1       2.277  -0.885   0.100  1.00  0.00    +0.147 A 
ATOM     19  C   UNL     1       0.884  -3.101   1.030  1.00  0.00    +0.022 A 
ATOM     20  C   UNL     1       2.301  -1.191   1.458  1.00  0.00    +0.061 A 
ATOM     21  C   UNL     1       1.593  -2.298   1.927  1.00  0.00    +0.055 A 
ATOM     22  C   UNL     1       1.545  -2.566   3.333  1.00  0.00    +0.099 C 
ATOM     23  N   UNL     1       1.455  -2.716   4.480  1.00  0.00    -0.192 NA
ATOM     24  F   UNL     1       2.924   0.219  -0.307  1.00  0.00    -0.205 F 
ENDBRANCH  13  16
ENDBRANCH  10  11
ENDBRANCH   1  10
TORSDOF 7
