MODEL 1
REMARK VINA RESULT:    -7.033      0.000      0.000
REMARK INTER + INTRA:          -9.534
REMARK INTER:                  -8.883
REMARK INTRA:                  -0.651
REMARK UNBOUND:                -0.651
REMARK SMILES CCN(C(=O)c1ccc(O)cc1)c1[nH]c(C)cc1C
REMARK SMILES IDX 4 1 5 2 3 3 2 4 1 5 13 6 14 7 18 8 15 9 17 10 19 12 16 13
REMARK SMILES IDX 6 14 7 15 12 16 8 17 11 18 9 19 10 20
REMARK H PARENT 14 11 10 21
ROOT
ATOM      1  C   UNL     1      26.063   1.297  51.979  1.00  0.00    +0.259 C 
ATOM      2  O   UNL     1      26.495   1.873  50.978  1.00  0.00    -0.269 OA
ENDROOT
BRANCH   1   3
ATOM      3  N   UNL     1      24.879   1.690  52.628  1.00  0.00    -0.294 N 
BRANCH   3   4
ATOM      4  C   UNL     1      25.008   2.817  53.562  1.00  0.00    +0.124 C 
ATOM      5  C   UNL     1      24.047   3.952  53.235  1.00  0.00    +0.028 C 
ENDBRANCH   3   4
BRANCH   3   6
ATOM      6  C   UNL     1      23.731   0.881  52.621  1.00  0.00    +0.116 A 
ATOM      7  N   UNL     1      23.543  -0.060  53.612  1.00  0.00    -0.345 N 
ATOM      8  C   UNL     1      22.657   0.756  51.743  1.00  0.00    -0.008 A 
ATOM      9  C   UNL     1      22.340  -0.698  53.460  1.00  0.00    +0.014 A 
ATOM     10  C   UNL     1      21.774  -0.215  52.304  1.00  0.00    +0.028 A 
ATOM     11  H   UNL     1      24.168  -0.202  54.390  1.00  0.00    +0.168 HD
ATOM     12  C   UNL     1      22.426   1.409  50.426  1.00  0.00    +0.048 C 
ATOM     13  C   UNL     1      21.866  -1.716  54.427  1.00  0.00    +0.064 C 
ENDBRANCH   3   6
ENDBRANCH   1   3
BRANCH   1  14
ATOM     14  C   UNL     1      26.770   0.048  52.393  1.00  0.00    +0.040 A 
ATOM     15  C   UNL     1      26.340  -1.222  51.986  1.00  0.00    +0.017 A 
ATOM     16  C   UNL     1      27.952   0.168  53.141  1.00  0.00    +0.017 A 
ATOM     17  C   UNL     1      27.058  -2.359  52.366  1.00  0.00    +0.047 A 
ATOM     18  C   UNL     1      28.671  -0.969  53.517  1.00  0.00    +0.047 A 
ATOM     19  C   UNL     1      28.212  -2.224  53.128  1.00  0.00    +0.115 A 
BRANCH  19  20
ATOM     20  O   UNL     1      28.880  -3.361  53.473  1.00  0.00    -0.508 OA
ATOM     21  H   UNL     1      28.843  -3.464  54.437  1.00  0.00    +0.293 HD
ENDBRANCH  19  20
ENDBRANCH   1  14
TORSDOF 5
ENDMDL
MODEL 2
REMARK VINA RESULT:    -7.014      1.692      2.600
REMARK INTER + INTRA:          -9.510
REMARK INTER:                  -8.930
REMARK INTRA:                  -0.580
REMARK UNBOUND:                -0.651
REMARK SMILES CCN(C(=O)c1ccc(O)cc1)c1[nH]c(C)cc1C
REMARK SMILES IDX 4 1 5 2 3 3 2 4 1 5 13 6 14 7 18 8 15 9 17 10 19 12 16 13
REMARK SMILES IDX 6 14 7 15 12 16 8 17 11 18 9 19 10 20
REMARK H PARENT 14 11 10 21
ROOT
ATOM      1  C   UNL     1      26.633   1.712  53.057  1.00  0.00    +0.259 C 
ATOM      2  O   UNL     1      26.954   2.435  54.003  1.00  0.00    -0.269 OA
ENDROOT
BRANCH   1   3
ATOM      3  N   UNL     1      25.873   2.179  51.970  1.00  0.00    -0.294 N 
BRANCH   3   4
ATOM      4  C   UNL     1      26.623   2.904  50.934  1.00  0.00    +0.124 C 
ATOM      5  C   UNL     1      25.741   3.315  49.763  1.00  0.00    +0.028 C 
ENDBRANCH   3   4
BRANCH   3   6
ATOM      6  C   UNL     1      24.470   2.222  52.014  1.00  0.00    +0.116 A 
ATOM      7  N   UNL     1      23.730   1.208  51.443  1.00  0.00    -0.345 N 
ATOM      8  C   UNL     1      23.560   3.156  52.502  1.00  0.00    -0.008 A 
ATOM      9  C   UNL     1      22.389   1.406  51.647  1.00  0.00    +0.014 A 
ATOM     10  C   UNL     1      22.256   2.611  52.295  1.00  0.00    +0.028 A 
ATOM     11  H   UNL     1      24.124   0.390  51.006  1.00  0.00    +0.168 HD
ATOM     12  C   UNL     1      23.799   4.509  53.074  1.00  0.00    +0.048 C 
ATOM     13  C   UNL     1      21.374   0.430  51.185  1.00  0.00    +0.064 C 
ENDBRANCH   3   6
ENDBRANCH   1   3
BRANCH   1  14
ATOM     14  C   UNL     1      27.223   0.340  53.029  1.00  0.00    +0.040 A 
ATOM     15  C   UNL     1      28.502   0.068  53.532  1.00  0.00    +0.017 A 
ATOM     16  C   UNL     1      26.427  -0.717  52.561  1.00  0.00    +0.017 A 
ATOM     17  C   UNL     1      28.995  -1.240  53.520  1.00  0.00    +0.047 A 
ATOM     18  C   UNL     1      26.920  -2.024  52.552  1.00  0.00    +0.047 A 
ATOM     19  C   UNL     1      28.203  -2.272  53.029  1.00  0.00    +0.115 A 
BRANCH  19  20
ATOM     20  O   UNL     1      28.726  -3.531  53.040  1.00  0.00    -0.508 OA
ATOM     21  H   UNL     1      28.090  -4.128  53.467  1.00  0.00    +0.293 HD
ENDBRANCH  19  20
ENDBRANCH   1  14
TORSDOF 5
ENDMDL
MODEL 3
REMARK VINA RESULT:    -6.992      1.764      3.003
REMARK INTER + INTRA:          -9.483
REMARK INTER:                  -8.925
REMARK INTRA:                  -0.558
REMARK UNBOUND:                -0.651
REMARK SMILES CCN(C(=O)c1ccc(O)cc1)c1[nH]c(C)cc1C
REMARK SMILES IDX 4 1 5 2 3 3 2 4 1 5 13 6 14 7 18 8 15 9 17 10 19 12 16 13
REMARK SMILES IDX 6 14 7 15 12 16 8 17 11 18 9 19 10 20
REMARK H PARENT 14 11 10 21
ROOT
ATOM      1  C   UNL     1      26.629   1.743  53.297  1.00  0.00    +0.259 C 
ATOM      2  O   UNL     1      26.904   2.397  54.306  1.00  0.00    -0.269 OA
ENDROOT
BRANCH   1   3
ATOM      3  N   UNL     1      25.985   2.306  52.181  1.00  0.00    -0.294 N 
BRANCH   3   4
ATOM      4  C   UNL     1      26.869   2.776  51.105  1.00  0.00    +0.124 C 
ATOM      5  C   UNL     1      26.137   2.924  49.778  1.00  0.00    +0.028 C 
ENDBRANCH   3   4
BRANCH   3   6
ATOM      6  C   UNL     1      24.629   2.671  52.219  1.00  0.00    +0.116 A 
ATOM      7  N   UNL     1      24.269   3.999  52.115  1.00  0.00    -0.345 N 
ATOM      8  C   UNL     1      23.452   1.951  52.401  1.00  0.00    -0.008 A 
ATOM      9  C   UNL     1      22.906   4.137  52.111  1.00  0.00    +0.014 A 
ATOM     10  C   UNL     1      22.375   2.882  52.294  1.00  0.00    +0.028 A 
ATOM     11  H   UNL     1      24.918   4.758  51.977  1.00  0.00    +0.168 HD
ATOM     12  C   UNL     1      23.259   0.510  52.720  1.00  0.00    +0.048 C 
ATOM     13  C   UNL     1      22.253   5.458  51.950  1.00  0.00    +0.064 C 
ENDBRANCH   3   6
ENDBRANCH   1   3
BRANCH   1  14
ATOM     14  C   UNL     1      27.158   0.346  53.237  1.00  0.00    +0.040 A 
ATOM     15  C   UNL     1      26.410  -0.712  52.705  1.00  0.00    +0.017 A 
ATOM     16  C   UNL     1      28.480   0.117  53.649  1.00  0.00    +0.017 A 
ATOM     17  C   UNL     1      26.963  -1.993  52.633  1.00  0.00    +0.047 A 
ATOM     18  C   UNL     1      29.033  -1.163  53.573  1.00  0.00    +0.047 A 
ATOM     19  C   UNL     1      28.265  -2.208  53.069  1.00  0.00    +0.115 A 
BRANCH  19  20
ATOM     20  O   UNL     1      28.762  -3.474  52.977  1.00  0.00    -0.508 OA
ATOM     21  H   UNL     1      28.618  -3.801  52.074  1.00  0.00    +0.293 HD
ENDBRANCH  19  20
ENDBRANCH   1  14
TORSDOF 5
ENDMDL
MODEL 4
REMARK VINA RESULT:    -6.740      1.198      1.407
REMARK INTER + INTRA:          -9.164
REMARK INTER:                  -8.845
REMARK INTRA:                  -0.318
REMARK UNBOUND:                -0.651
REMARK SMILES CCN(C(=O)c1ccc(O)cc1)c1[nH]c(C)cc1C
REMARK SMILES IDX 4 1 5 2 3 3 2 4 1 5 13 6 14 7 18 8 15 9 17 10 19 12 16 13
REMARK SMILES IDX 6 14 7 15 12 16 8 17 11 18 9 19 10 20
REMARK H PARENT 14 11 10 21
ROOT
ATOM      1  C   UNL     1      25.878   1.503  53.402  1.00  0.00    +0.259 C 
ATOM      2  O   UNL     1      26.155   2.343  54.262  1.00  0.00    -0.269 OA
ENDROOT
BRANCH   1   3
ATOM      3  N   UNL     1      24.916   1.732  52.401  1.00  0.00    -0.294 N 
BRANCH   3   4
ATOM      4  C   UNL     1      25.200   2.849  51.489  1.00  0.00    +0.124 C 
ATOM      5  C   UNL     1      26.481   2.637  50.695  1.00  0.00    +0.028 C 
ENDBRANCH   3   4
BRANCH   3   6
ATOM      6  C   UNL     1      23.642   1.143  52.454  1.00  0.00    +0.116 A 
ATOM      7  N   UNL     1      23.272   0.396  53.553  1.00  0.00    -0.345 N 
ATOM      8  C   UNL     1      22.580   1.087  51.556  1.00  0.00    -0.008 A 
ATOM      9  C   UNL     1      21.976  -0.036  53.436  1.00  0.00    +0.014 A 
ATOM     10  C   UNL     1      21.527   0.373  52.203  1.00  0.00    +0.028 A 
ATOM     11  H   UNL     1      23.847   0.257  54.369  1.00  0.00    +0.168 HD
ATOM     12  C   UNL     1      22.493   1.581  50.154  1.00  0.00    +0.048 C 
ATOM     13  C   UNL     1      21.310  -0.811  54.510  1.00  0.00    +0.064 C 
ENDBRANCH   3   6
ENDBRANCH   1   3
BRANCH   1  14
ATOM     14  C   UNL     1      26.728   0.275  53.363  1.00  0.00    +0.040 A 
ATOM     15  C   UNL     1      26.300  -0.909  52.749  1.00  0.00    +0.017 A 
ATOM     16  C   UNL     1      28.028   0.349  53.886  1.00  0.00    +0.017 A 
ATOM     17  C   UNL     1      27.147  -2.019  52.703  1.00  0.00    +0.047 A 
ATOM     18  C   UNL     1      28.876  -0.760  53.837  1.00  0.00    +0.047 A 
ATOM     19  C   UNL     1      28.423  -1.937  53.248  1.00  0.00    +0.115 A 
BRANCH  19  20
ATOM     20  O   UNL     1      29.215  -3.044  53.178  1.00  0.00    -0.508 OA
ATOM     21  H   UNL     1      29.613  -3.198  54.050  1.00  0.00    +0.293 HD
ENDBRANCH  19  20
ENDBRANCH   1  14
TORSDOF 5
ENDMDL
MODEL 5
REMARK VINA RESULT:    -6.590      1.780      3.438
REMARK INTER + INTRA:          -8.974
REMARK INTER:                  -8.194
REMARK INTRA:                  -0.780
REMARK UNBOUND:                -0.651
REMARK SMILES CCN(C(=O)c1ccc(O)cc1)c1[nH]c(C)cc1C
REMARK SMILES IDX 4 1 5 2 3 3 2 4 1 5 13 6 14 7 18 8 15 9 17 10 19 12 16 13
REMARK SMILES IDX 6 14 7 15 12 16 8 17 11 18 9 19 10 20
REMARK H PARENT 14 11 10 21
ROOT
ATOM      1  C   UNL     1      24.045   1.288  53.129  1.00  0.00    +0.259 C 
ATOM      2  O   UNL     1      23.979   2.519  53.163  1.00  0.00    -0.269 OA
ENDROOT
BRANCH   1   3
ATOM      3  N   UNL     1      22.961   0.482  52.739  1.00  0.00    -0.294 N 
BRANCH   3   4
ATOM      4  C   UNL     1      22.868  -0.825  53.406  1.00  0.00    +0.124 C 
ATOM      5  C   UNL     1      22.138  -0.744  54.739  1.00  0.00    +0.028 C 
ENDBRANCH   3   4
BRANCH   3   6
ATOM      6  C   UNL     1      22.206   0.766  51.590  1.00  0.00    +0.116 A 
ATOM      7  N   UNL     1      22.795   1.397  50.515  1.00  0.00    -0.345 N 
ATOM      8  C   UNL     1      20.864   0.588  51.263  1.00  0.00    -0.008 A 
ATOM      9  C   UNL     1      21.909   1.525  49.477  1.00  0.00    +0.014 A 
ATOM     10  C   UNL     1      20.702   1.038  49.918  1.00  0.00    +0.028 A 
ATOM     11  H   UNL     1      23.768   1.655  50.467  1.00  0.00    +0.168 HD
ATOM     12  C   UNL     1      19.737   0.103  52.105  1.00  0.00    +0.048 C 
ATOM     13  C   UNL     1      22.306   2.117  48.177  1.00  0.00    +0.064 C 
ENDBRANCH   3   6
ENDBRANCH   1   3
BRANCH   1  14
ATOM     14  C   UNL     1      25.390   0.680  53.365  1.00  0.00    +0.040 A 
ATOM     15  C   UNL     1      26.030   0.747  54.609  1.00  0.00    +0.017 A 
ATOM     16  C   UNL     1      25.981  -0.054  52.325  1.00  0.00    +0.017 A 
ATOM     17  C   UNL     1      27.268   0.127  54.793  1.00  0.00    +0.047 A 
ATOM     18  C   UNL     1      27.217  -0.675  52.510  1.00  0.00    +0.047 A 
ATOM     19  C   UNL     1      27.852  -0.574  53.744  1.00  0.00    +0.115 A 
BRANCH  19  20
ATOM     20  O   UNL     1      29.060  -1.164  53.971  1.00  0.00    -0.508 OA
ATOM     21  H   UNL     1      28.926  -2.120  54.068  1.00  0.00    +0.293 HD
ENDBRANCH  19  20
ENDBRANCH   1  14
TORSDOF 5
ENDMDL
MODEL 6
REMARK VINA RESULT:    -6.497      2.019      2.479
REMARK INTER + INTRA:          -8.857
REMARK INTER:                  -8.383
REMARK INTRA:                  -0.474
REMARK UNBOUND:                -0.651
REMARK SMILES CCN(C(=O)c1ccc(O)cc1)c1[nH]c(C)cc1C
REMARK SMILES IDX 4 1 5 2 3 3 2 4 1 5 13 6 14 7 18 8 15 9 17 10 19 12 16 13
REMARK SMILES IDX 6 14 7 15 12 16 8 17 11 18 9 19 10 20
REMARK H PARENT 14 11 10 21
ROOT
ATOM      1  C   UNL     1      24.178  -0.163  53.497  1.00  0.00    +0.259 C 
ATOM      2  O   UNL     1      23.514  -0.704  54.384  1.00  0.00    -0.269 OA
ENDROOT
BRANCH   1   3
ATOM      3  N   UNL     1      23.597   0.639  52.498  1.00  0.00    -0.294 N 
BRANCH   3   4
ATOM      4  C   UNL     1      24.365   1.832  52.112  1.00  0.00    +0.124 C 
ATOM      5  C   UNL     1      23.916   3.077  52.865  1.00  0.00    +0.028 C 
ENDBRANCH   3   4
BRANCH   3   6
ATOM      6  C   UNL     1      22.254   0.485  52.117  1.00  0.00    +0.116 A 
ATOM      7  N   UNL     1      21.364  -0.143  52.963  1.00  0.00    -0.345 N 
ATOM      8  C   UNL     1      21.549   0.805  50.960  1.00  0.00    -0.008 A 
ATOM      9  C   UNL     1      20.099  -0.136  52.435  1.00  0.00    +0.014 A 
ATOM     10  C   UNL     1      20.188   0.440  51.190  1.00  0.00    +0.028 A 
ATOM     11  H   UNL     1      21.595  -0.489  53.881  1.00  0.00    +0.168 HD
ATOM     12  C   UNL     1      22.042   1.351  49.666  1.00  0.00    +0.048 C 
ATOM     13  C   UNL     1      18.941  -0.696  53.170  1.00  0.00    +0.064 C 
ENDBRANCH   3   6
ENDBRANCH   1   3
BRANCH   1  14
ATOM     14  C   UNL     1      25.664  -0.259  53.616  1.00  0.00    +0.040 A 
ATOM     15  C   UNL     1      26.375   0.397  54.629  1.00  0.00    +0.017 A 
ATOM     16  C   UNL     1      26.349  -1.107  52.731  1.00  0.00    +0.017 A 
ATOM     17  C   UNL     1      27.761   0.243  54.723  1.00  0.00    +0.047 A 
ATOM     18  C   UNL     1      27.734  -1.262  52.828  1.00  0.00    +0.047 A 
ATOM     19  C   UNL     1      28.427  -0.580  53.823  1.00  0.00    +0.115 A 
BRANCH  19  20
ATOM     20  O   UNL     1      29.779  -0.700  53.956  1.00  0.00    -0.508 OA
ATOM     21  H   UNL     1      29.973  -1.530  54.421  1.00  0.00    +0.293 HD
ENDBRANCH  19  20
ENDBRANCH   1  14
TORSDOF 5
ENDMDL
MODEL 7
REMARK VINA RESULT:    -6.494      1.503      2.768
REMARK INTER + INTRA:          -8.853
REMARK INTER:                  -7.902
REMARK INTRA:                  -0.951
REMARK UNBOUND:                -0.651
REMARK SMILES CCN(C(=O)c1ccc(O)cc1)c1[nH]c(C)cc1C
REMARK SMILES IDX 4 1 5 2 3 3 2 4 1 5 13 6 14 7 18 8 15 9 17 10 19 12 16 13
REMARK SMILES IDX 6 14 7 15 12 16 8 17 11 18 9 19 10 20
REMARK H PARENT 14 11 10 21
ROOT
ATOM      1  C   UNL     1      25.813   2.412  51.391  1.00  0.00    +0.259 C 
ATOM      2  O   UNL     1      26.307   2.911  50.377  1.00  0.00    -0.269 OA
ENDROOT
BRANCH   1   3
ATOM      3  N   UNL     1      24.473   2.620  51.762  1.00  0.00    -0.294 N 
BRANCH   3   4
ATOM      4  C   UNL     1      24.265   3.223  53.087  1.00  0.00    +0.124 C 
ATOM      5  C   UNL     1      23.517   4.547  53.009  1.00  0.00    +0.028 C 
ENDBRANCH   3   4
BRANCH   3   6
ATOM      6  C   UNL     1      23.412   2.023  51.062  1.00  0.00    +0.116 A 
ATOM      7  N   UNL     1      23.027   2.521  49.835  1.00  0.00    -0.345 N 
ATOM      8  C   UNL     1      22.543   0.977  51.359  1.00  0.00    -0.008 A 
ATOM      9  C   UNL     1      22.021   1.764  49.293  1.00  0.00    +0.014 A 
ATOM     10  C   UNL     1      21.698   0.803  50.221  1.00  0.00    +0.028 A 
ATOM     11  H   UNL     1      23.478   3.289  49.363  1.00  0.00    +0.168 HD
ATOM     12  C   UNL     1      22.400   0.187  52.613  1.00  0.00    +0.048 C 
ATOM     13  C   UNL     1      21.463   2.049  47.950  1.00  0.00    +0.064 C 
ENDBRANCH   3   6
ENDBRANCH   1   3
BRANCH   1  14
ATOM     14  C   UNL     1      26.659   1.434  52.139  1.00  0.00    +0.040 A 
ATOM     15  C   UNL     1      26.449   0.052  52.058  1.00  0.00    +0.017 A 
ATOM     16  C   UNL     1      27.750   1.923  52.875  1.00  0.00    +0.017 A 
ATOM     17  C   UNL     1      27.292  -0.826  52.745  1.00  0.00    +0.047 A 
ATOM     18  C   UNL     1      28.594   1.045  53.558  1.00  0.00    +0.047 A 
ATOM     19  C   UNL     1      28.353  -0.323  53.489  1.00  0.00    +0.115 A 
BRANCH  19  20
ATOM     20  O   UNL     1      29.150  -1.217  54.140  1.00  0.00    -0.508 OA
ATOM     21  H   UNL     1      29.900  -1.442  53.566  1.00  0.00    +0.293 HD
ENDBRANCH  19  20
ENDBRANCH   1  14
TORSDOF 5
ENDMDL
MODEL 8
REMARK VINA RESULT:    -6.391      1.704      2.739
REMARK INTER + INTRA:          -8.724
REMARK INTER:                  -8.113
REMARK INTRA:                  -0.611
REMARK UNBOUND:                -0.651
REMARK SMILES CCN(C(=O)c1ccc(O)cc1)c1[nH]c(C)cc1C
REMARK SMILES IDX 4 1 5 2 3 3 2 4 1 5 13 6 14 7 18 8 15 9 17 10 19 12 16 13
REMARK SMILES IDX 6 14 7 15 12 16 8 17 11 18 9 19 10 20
REMARK H PARENT 14 11 10 21
ROOT
ATOM      1  C   UNL     1      25.322   2.053  52.910  1.00  0.00    +0.259 C 
ATOM      2  O   UNL     1      25.168   2.813  53.869  1.00  0.00    -0.269 OA
ENDROOT
BRANCH   1   3
ATOM      3  N   UNL     1      24.736   2.289  51.654  1.00  0.00    -0.294 N 
BRANCH   3   4
ATOM      4  C   UNL     1      25.320   3.392  50.876  1.00  0.00    +0.124 C 
ATOM      5  C   UNL     1      26.516   2.944  50.046  1.00  0.00    +0.028 C 
ENDBRANCH   3   4
BRANCH   3   6
ATOM      6  C   UNL     1      23.501   1.725  51.298  1.00  0.00    +0.116 A 
ATOM      7  N   UNL     1      22.933   2.021  50.077  1.00  0.00    -0.345 N 
ATOM      8  C   UNL     1      22.603   0.896  51.966  1.00  0.00    -0.008 A 
ATOM      9  C   UNL     1      21.765   1.325  49.898  1.00  0.00    +0.014 A 
ATOM     10  C   UNL     1      21.535   0.625  51.058  1.00  0.00    +0.028 A 
ATOM     11  H   UNL     1      23.359   2.607  49.375  1.00  0.00    +0.168 HD
ATOM     12  C   UNL     1      22.631   0.400  53.369  1.00  0.00    +0.048 C 
ATOM     13  C   UNL     1      20.984   1.417  48.642  1.00  0.00    +0.064 C 
ENDBRANCH   3   6
ENDBRANCH   1   3
BRANCH   1  14
ATOM     14  C   UNL     1      26.299   0.936  53.088  1.00  0.00    +0.040 A 
ATOM     15  C   UNL     1      26.119  -0.315  52.486  1.00  0.00    +0.017 A 
ATOM     16  C   UNL     1      27.476   1.190  53.811  1.00  0.00    +0.017 A 
ATOM     17  C   UNL     1      27.082  -1.315  52.648  1.00  0.00    +0.047 A 
ATOM     18  C   UNL     1      28.439   0.192  53.970  1.00  0.00    +0.047 A 
ATOM     19  C   UNL     1      28.229  -1.055  53.389  1.00  0.00    +0.115 A 
BRANCH  19  20
ATOM     20  O   UNL     1      29.141  -2.060  53.518  1.00  0.00    -0.508 OA
ATOM     21  H   UNL     1      28.671  -2.881  53.736  1.00  0.00    +0.293 HD
ENDBRANCH  19  20
ENDBRANCH   1  14
TORSDOF 5
ENDMDL
MODEL 9
REMARK VINA RESULT:    -6.344      3.174      5.683
REMARK INTER + INTRA:          -8.663
REMARK INTER:                  -7.744
REMARK INTRA:                  -0.919
REMARK UNBOUND:                -0.651
REMARK SMILES CCN(C(=O)c1ccc(O)cc1)c1[nH]c(C)cc1C
REMARK SMILES IDX 4 1 5 2 3 3 2 4 1 5 13 6 14 7 18 8 15 9 17 10 19 12 16 13
REMARK SMILES IDX 6 14 7 15 12 16 8 17 11 18 9 19 10 20
REMARK H PARENT 14 11 10 21
ROOT
ATOM      1  C   UNL     1      22.852   1.909  50.985  1.00  0.00    +0.259 C 
ATOM      2  O   UNL     1      22.525   1.610  49.834  1.00  0.00    -0.269 OA
ENDROOT
BRANCH   1   3
ATOM      3  N   UNL     1      23.505   3.115  51.298  1.00  0.00    -0.294 N 
BRANCH   3   4
ATOM      4  C   UNL     1      22.704   4.098  52.042  1.00  0.00    +0.124 C 
ATOM      5  C   UNL     1      23.480   4.725  53.192  1.00  0.00    +0.028 C 
ENDBRANCH   3   4
BRANCH   3   6
ATOM      6  C   UNL     1      24.716   3.479  50.687  1.00  0.00    +0.116 A 
ATOM      7  N   UNL     1      24.768   4.581  49.859  1.00  0.00    -0.345 N 
ATOM      8  C   UNL     1      25.987   2.912  50.679  1.00  0.00    -0.008 A 
ATOM      9  C   UNL     1      26.046   4.800  49.416  1.00  0.00    +0.014 A 
ATOM     10  C   UNL     1      26.821   3.775  49.904  1.00  0.00    +0.028 A 
ATOM     11  H   UNL     1      23.988   5.191  49.671  1.00  0.00    +0.168 HD
ATOM     12  C   UNL     1      26.461   1.630  51.269  1.00  0.00    +0.048 C 
ATOM     13  C   UNL     1      26.389   5.958  48.558  1.00  0.00    +0.064 C 
ENDBRANCH   3   6
ENDBRANCH   1   3
BRANCH   1  14
ATOM     14  C   UNL     1      22.381   1.003  52.075  1.00  0.00    +0.040 A 
ATOM     15  C   UNL     1      21.023   0.739  52.291  1.00  0.00    +0.017 A 
ATOM     16  C   UNL     1      23.345   0.331  52.845  1.00  0.00    +0.017 A 
ATOM     17  C   UNL     1      20.634  -0.148  53.298  1.00  0.00    +0.047 A 
ATOM     18  C   UNL     1      22.955  -0.558  53.849  1.00  0.00    +0.047 A 
ATOM     19  C   UNL     1      21.600  -0.786  54.069  1.00  0.00    +0.115 A 
BRANCH  19  20
ATOM     20  O   UNL     1      21.173  -1.644  55.038  1.00  0.00    -0.508 OA
ATOM     21  H   UNL     1      20.912  -1.128  55.817  1.00  0.00    +0.293 HD
ENDBRANCH  19  20
ENDBRANCH   1  14
TORSDOF 5
ENDMDL
