MODEL 1
REMARK VINA RESULT:    -6.277      0.000      0.000
REMARK INTER + INTRA:          -7.663
REMARK INTER:                  -7.194
REMARK INTRA:                  -0.469
REMARK UNBOUND:                -0.469
REMARK SMILES O=[N+]([O-])c1cc(N2CCOCC2)ccc1O
REMARK SMILES IDX 4 1 5 2 6 3 13 4 14 5 15 6 2 7 1 8 3 9 16 10 7 12 8 13 12 14
REMARK SMILES IDX 9 15 11 16 10 17
REMARK H PARENT 16 11
ROOT
ATOM      1  C   UNL     1      26.712   0.379  53.988  1.00  0.00    +0.312 A 
ATOM      2  C   UNL     1      25.383  -0.076  54.049  1.00  0.00    +0.115 A 
ATOM      3  C   UNL     1      24.438   0.290  53.075  1.00  0.00    +0.044 A 
ATOM      4  C   UNL     1      24.884   1.110  52.028  1.00  0.00    +0.030 A 
ATOM      5  C   UNL     1      26.207   1.567  51.963  1.00  0.00    +0.056 A 
ATOM      6  C   UNL     1      27.126   1.206  52.940  1.00  0.00    +0.194 A 
ENDROOT
BRANCH   1   7
ATOM      7  N   UNL     1      27.646  -0.032  55.038  1.00  0.00    +0.066 N 
ATOM      8  O   UNL     1      28.761  -0.453  54.699  1.00  0.00    -0.258 OA
ATOM      9  O   UNL     1      27.259   0.059  56.214  1.00  0.00    -0.258 OA
ENDBRANCH   1   7
BRANCH   6  10
ATOM     10  O   UNL     1      28.386   1.709  52.774  1.00  0.00    -0.502 OA
ATOM     11  H   UNL     1      28.389   2.367  52.046  1.00  0.00    +0.293 HD
ENDBRANCH   6  10
BRANCH   3  12
ATOM     12  N   UNL     1      23.129  -0.204  53.169  1.00  0.00    -0.367 N 
ATOM     13  C   UNL     1      22.013   0.693  52.794  1.00  0.00    +0.145 C 
ATOM     14  C   UNL     1      22.842  -0.936  54.430  1.00  0.00    +0.145 C 
ATOM     15  C   UNL     1      20.696  -0.099  52.745  1.00  0.00    +0.181 C 
ATOM     16  C   UNL     1      21.484  -1.651  54.328  1.00  0.00    +0.181 C 
ATOM     17  O   UNL     1      20.425  -0.737  54.004  1.00  0.00    -0.378 OA
ENDBRANCH   3  12
TORSDOF 3
ENDMDL
MODEL 2
REMARK VINA RESULT:    -6.181      1.674      5.521
REMARK INTER + INTRA:          -7.553
REMARK INTER:                  -7.151
REMARK INTRA:                  -0.402
REMARK UNBOUND:                -0.469
REMARK SMILES O=[N+]([O-])c1cc(N2CCOCC2)ccc1O
REMARK SMILES IDX 4 1 5 2 6 3 13 4 14 5 15 6 2 7 1 8 3 9 16 10 7 12 8 13 12 14
REMARK SMILES IDX 9 15 11 16 10 17
REMARK H PARENT 16 11
ROOT
ATOM      1  C   UNL     1      22.808  -0.411  53.800  1.00  0.00    +0.312 A 
ATOM      2  C   UNL     1      24.192  -0.634  53.906  1.00  0.00    +0.115 A 
ATOM      3  C   UNL     1      25.121   0.207  53.268  1.00  0.00    +0.044 A 
ATOM      4  C   UNL     1      24.607   1.290  52.540  1.00  0.00    +0.030 A 
ATOM      5  C   UNL     1      23.229   1.516  52.430  1.00  0.00    +0.056 A 
ATOM      6  C   UNL     1      22.324   0.669  53.057  1.00  0.00    +0.194 A 
ENDROOT
BRANCH   1   7
ATOM      7  N   UNL     1      21.893  -1.327  54.483  1.00  0.00    +0.066 N 
ATOM      8  O   UNL     1      20.746  -1.454  54.032  1.00  0.00    -0.258 OA
ATOM      9  O   UNL     1      22.322  -1.921  55.485  1.00  0.00    -0.258 OA
ENDBRANCH   1   7
BRANCH   6  10
ATOM     10  O   UNL     1      21.006   0.986  52.882  1.00  0.00    -0.502 OA
ATOM     11  H   UNL     1      20.902   1.960  52.831  1.00  0.00    +0.293 HD
ENDBRANCH   6  10
BRANCH   3  12
ATOM     12  N   UNL     1      26.492  -0.046  53.418  1.00  0.00    -0.367 N 
ATOM     13  C   UNL     1      27.013  -1.363  52.987  1.00  0.00    +0.145 C 
ATOM     14  C   UNL     1      27.046   0.357  54.737  1.00  0.00    +0.145 C 
ATOM     15  C   UNL     1      28.550  -1.354  53.017  1.00  0.00    +0.181 C 
ATOM     16  C   UNL     1      28.582   0.282  54.709  1.00  0.00    +0.181 C 
ATOM     17  O   UNL     1      29.043  -1.024  54.326  1.00  0.00    -0.378 OA
ENDBRANCH   3  12
TORSDOF 3
ENDMDL
MODEL 3
REMARK VINA RESULT:    -6.131      2.630      4.214
REMARK INTER + INTRA:          -7.496
REMARK INTER:                  -7.033
REMARK INTRA:                  -0.463
REMARK UNBOUND:                -0.469
REMARK SMILES O=[N+]([O-])c1cc(N2CCOCC2)ccc1O
REMARK SMILES IDX 4 1 5 2 6 3 13 4 14 5 15 6 2 7 1 8 3 9 16 10 7 12 8 13 12 14
REMARK SMILES IDX 9 15 11 16 10 17
REMARK H PARENT 16 11
ROOT
ATOM      1  C   UNL     1      24.047  -0.680  54.246  1.00  0.00    +0.312 A 
ATOM      2  C   UNL     1      23.740   0.074  53.100  1.00  0.00    +0.115 A 
ATOM      3  C   UNL     1      22.411   0.269  52.686  1.00  0.00    +0.044 A 
ATOM      4  C   UNL     1      21.404  -0.303  53.478  1.00  0.00    +0.030 A 
ATOM      5  C   UNL     1      21.705  -1.055  54.621  1.00  0.00    +0.056 A 
ATOM      6  C   UNL     1      23.025  -1.249  55.010  1.00  0.00    +0.194 A 
ENDROOT
BRANCH   1   7
ATOM      7  N   UNL     1      25.452  -0.852  54.620  1.00  0.00    +0.066 N 
ATOM      8  O   UNL     1      26.260  -1.166  53.734  1.00  0.00    -0.258 OA
ATOM      9  O   UNL     1      25.752  -0.679  55.812  1.00  0.00    -0.258 OA
ENDBRANCH   1   7
BRANCH   6  10
ATOM     10  O   UNL     1      23.198  -1.999  56.139  1.00  0.00    -0.502 OA
ATOM     11  H   UNL     1      22.579  -2.760  56.133  1.00  0.00    +0.293 HD
ENDBRANCH   6  10
BRANCH   3  12
ATOM     12  N   UNL     1      22.154   1.044  51.546  1.00  0.00    -0.367 N 
ATOM     13  C   UNL     1      21.288   0.472  50.490  1.00  0.00    +0.145 C 
ATOM     14  C   UNL     1      23.356   1.700  50.970  1.00  0.00    +0.145 C 
ATOM     15  C   UNL     1      20.945   1.551  49.451  1.00  0.00    +0.181 C 
ATOM     16  C   UNL     1      22.938   2.719  49.897  1.00  0.00    +0.181 C 
ATOM     17  O   UNL     1      22.135   2.112  48.873  1.00  0.00    -0.378 OA
ENDBRANCH   3  12
TORSDOF 3
ENDMDL
MODEL 4
REMARK VINA RESULT:    -5.915      1.475      2.102
REMARK INTER + INTRA:          -7.248
REMARK INTER:                  -6.836
REMARK INTRA:                  -0.412
REMARK UNBOUND:                -0.469
REMARK SMILES O=[N+]([O-])c1cc(N2CCOCC2)ccc1O
REMARK SMILES IDX 4 1 5 2 6 3 13 4 14 5 15 6 2 7 1 8 3 9 16 10 7 12 8 13 12 14
REMARK SMILES IDX 9 15 11 16 10 17
REMARK H PARENT 16 11
ROOT
ATOM      1  C   UNL     1      26.736   1.718  52.942  1.00  0.00    +0.312 A 
ATOM      2  C   UNL     1      25.733   0.978  53.593  1.00  0.00    +0.115 A 
ATOM      3  C   UNL     1      24.417   0.939  53.101  1.00  0.00    +0.044 A 
ATOM      4  C   UNL     1      24.153   1.651  51.922  1.00  0.00    +0.030 A 
ATOM      5  C   UNL     1      25.149   2.390  51.270  1.00  0.00    +0.056 A 
ATOM      6  C   UNL     1      26.443   2.428  51.775  1.00  0.00    +0.194 A 
ENDROOT
BRANCH   1   7
ATOM      7  N   UNL     1      28.086   1.724  53.509  1.00  0.00    +0.066 N 
ATOM      8  O   UNL     1      28.752   0.681  53.449  1.00  0.00    -0.258 OA
ATOM      9  O   UNL     1      28.483   2.780  54.028  1.00  0.00    -0.258 OA
ENDBRANCH   1   7
BRANCH   6  10
ATOM     10  O   UNL     1      27.330   3.180  51.057  1.00  0.00    -0.502 OA
ATOM     11  H   UNL     1      27.827   3.774  51.658  1.00  0.00    +0.293 HD
ENDBRANCH   6  10
BRANCH   3  12
ATOM     12  N   UNL     1      23.455   0.173  53.776  1.00  0.00    -0.367 N 
ATOM     13  C   UNL     1      23.919  -0.952  54.618  1.00  0.00    +0.145 C 
ATOM     14  C   UNL     1      22.288  -0.215  52.941  1.00  0.00    +0.145 C 
ATOM     15  C   UNL     1      22.747  -1.509  55.442  1.00  0.00    +0.181 C 
ATOM     16  C   UNL     1      21.184  -0.819  53.824  1.00  0.00    +0.181 C 
ATOM     17  O   UNL     1      21.668  -1.932  54.592  1.00  0.00    -0.378 OA
ENDBRANCH   3  12
TORSDOF 3
ENDMDL
MODEL 5
REMARK VINA RESULT:    -5.846      2.268      5.693
REMARK INTER + INTRA:          -7.169
REMARK INTER:                  -6.742
REMARK INTRA:                  -0.427
REMARK UNBOUND:                -0.469
REMARK SMILES O=[N+]([O-])c1cc(N2CCOCC2)ccc1O
REMARK SMILES IDX 4 1 5 2 6 3 13 4 14 5 15 6 2 7 1 8 3 9 16 10 7 12 8 13 12 14
REMARK SMILES IDX 9 15 11 16 10 17
REMARK H PARENT 16 11
ROOT
ATOM      1  C   UNL     1      22.096  -0.503  53.642  1.00  0.00    +0.312 A 
ATOM      2  C   UNL     1      23.410  -0.094  53.352  1.00  0.00    +0.115 A 
ATOM      3  C   UNL     1      23.689   0.758  52.269  1.00  0.00    +0.044 A 
ATOM      4  C   UNL     1      22.598   1.199  51.504  1.00  0.00    +0.030 A 
ATOM      5  C   UNL     1      21.288   0.793  51.789  1.00  0.00    +0.056 A 
ATOM      6  C   UNL     1      21.030  -0.059  52.856  1.00  0.00    +0.194 A 
ENDROOT
BRANCH   1   7
ATOM      7  N   UNL     1      21.873  -1.397  54.780  1.00  0.00    +0.066 N 
ATOM      8  O   UNL     1      20.862  -2.113  54.773  1.00  0.00    -0.258 OA
ATOM      9  O   UNL     1      22.712  -1.379  55.695  1.00  0.00    -0.258 OA
ENDBRANCH   1   7
BRANCH   6  10
ATOM     10  O   UNL     1      19.716  -0.387  53.039  1.00  0.00    -0.502 OA
ATOM     11  H   UNL     1      19.586  -0.749  53.942  1.00  0.00    +0.293 HD
ENDBRANCH   6  10
BRANCH   3  12
ATOM     12  N   UNL     1      25.013   1.153  52.030  1.00  0.00    -0.367 N 
ATOM     13  C   UNL     1      25.981   1.075  53.147  1.00  0.00    +0.145 C 
ATOM     14  C   UNL     1      25.143   2.430  51.282  1.00  0.00    +0.145 C 
ATOM     15  C   UNL     1      27.405   1.326  52.627  1.00  0.00    +0.181 C 
ATOM     16  C   UNL     1      26.603   2.642  50.848  1.00  0.00    +0.181 C 
ATOM     17  O   UNL     1      27.501   2.600  51.969  1.00  0.00    -0.378 OA
ENDBRANCH   3  12
TORSDOF 3
ENDMDL
MODEL 6
REMARK VINA RESULT:    -5.836      2.698      4.802
REMARK INTER + INTRA:          -7.158
REMARK INTER:                  -6.707
REMARK INTRA:                  -0.451
REMARK UNBOUND:                -0.469
REMARK SMILES O=[N+]([O-])c1cc(N2CCOCC2)ccc1O
REMARK SMILES IDX 4 1 5 2 6 3 13 4 14 5 15 6 2 7 1 8 3 9 16 10 7 12 8 13 12 14
REMARK SMILES IDX 9 15 11 16 10 17
REMARK H PARENT 16 11
ROOT
ATOM      1  C   UNL     1      23.425  -0.474  54.245  1.00  0.00    +0.312 A 
ATOM      2  C   UNL     1      23.316   0.355  53.115  1.00  0.00    +0.115 A 
ATOM      3  C   UNL     1      24.455   0.807  52.426  1.00  0.00    +0.044 A 
ATOM      4  C   UNL     1      25.703   0.377  52.901  1.00  0.00    +0.030 A 
ATOM      5  C   UNL     1      25.816  -0.449  54.027  1.00  0.00    +0.056 A 
ATOM      6  C   UNL     1      24.681  -0.877  54.705  1.00  0.00    +0.194 A 
ENDROOT
BRANCH   1   7
ATOM      7  N   UNL     1      22.201  -0.904  54.923  1.00  0.00    +0.066 N 
ATOM      8  O   UNL     1      21.268  -0.094  55.019  1.00  0.00    -0.258 OA
ATOM      9  O   UNL     1      22.172  -2.061  55.373  1.00  0.00    -0.258 OA
ENDBRANCH   1   7
BRANCH   6  10
ATOM     10  O   UNL     1      24.913  -1.678  55.788  1.00  0.00    -0.502 OA
ATOM     11  H   UNL     1      25.301  -1.149  56.517  1.00  0.00    +0.293 HD
ENDBRANCH   6  10
BRANCH   3  12
ATOM     12  N   UNL     1      24.295   1.618  51.293  1.00  0.00    -0.367 N 
ATOM     13  C   UNL     1      25.076   2.873  51.213  1.00  0.00    +0.145 C 
ATOM     14  C   UNL     1      22.881   1.829  50.888  1.00  0.00    +0.145 C 
ATOM     15  C   UNL     1      24.936   3.490  49.812  1.00  0.00    +0.181 C 
ATOM     16  C   UNL     1      22.821   2.504  49.508  1.00  0.00    +0.181 C 
ATOM     17  O   UNL     1      23.558   3.737  49.488  1.00  0.00    -0.378 OA
ENDBRANCH   3  12
TORSDOF 3
ENDMDL
MODEL 7
REMARK VINA RESULT:    -5.667      1.989      2.669
REMARK INTER + INTRA:          -6.964
REMARK INTER:                  -6.507
REMARK INTRA:                  -0.457
REMARK UNBOUND:                -0.469
REMARK SMILES O=[N+]([O-])c1cc(N2CCOCC2)ccc1O
REMARK SMILES IDX 4 1 5 2 6 3 13 4 14 5 15 6 2 7 1 8 3 9 16 10 7 12 8 13 12 14
REMARK SMILES IDX 9 15 11 16 10 17
REMARK H PARENT 16 11
ROOT
ATOM      1  C   UNL     1      26.312  -0.069  54.603  1.00  0.00    +0.312 A 
ATOM      2  C   UNL     1      25.188   0.312  53.850  1.00  0.00    +0.115 A 
ATOM      3  C   UNL     1      25.302   0.678  52.497  1.00  0.00    +0.044 A 
ATOM      4  C   UNL     1      26.583   0.626  51.927  1.00  0.00    +0.030 A 
ATOM      5  C   UNL     1      27.706   0.247  52.674  1.00  0.00    +0.056 A 
ATOM      6  C   UNL     1      27.578  -0.100  54.013  1.00  0.00    +0.194 A 
ENDROOT
BRANCH   1   7
ATOM      7  N   UNL     1      26.126  -0.432  56.009  1.00  0.00    +0.066 N 
ATOM      8  O   UNL     1      25.152  -1.137  56.309  1.00  0.00    -0.258 OA
ATOM      9  O   UNL     1      26.957  -0.002  56.825  1.00  0.00    -0.258 OA
ENDBRANCH   1   7
BRANCH   6  10
ATOM     10  O   UNL     1      28.740  -0.453  54.641  1.00  0.00    -0.502 OA
ATOM     11  H   UNL     1      28.814  -1.430  54.679  1.00  0.00    +0.293 HD
ENDBRANCH   6  10
BRANCH   3  12
ATOM     12  N   UNL     1      24.150   1.034  51.783  1.00  0.00    -0.367 N 
ATOM     13  C   UNL     1      24.110   2.364  51.133  1.00  0.00    +0.145 C 
ATOM     14  C   UNL     1      22.877   0.733  52.487  1.00  0.00    +0.145 C 
ATOM     15  C   UNL     1      22.877   2.466  50.221  1.00  0.00    +0.181 C 
ATOM     16  C   UNL     1      21.687   0.915  51.531  1.00  0.00    +0.181 C 
ATOM     17  O   UNL     1      21.665   2.232  50.956  1.00  0.00    -0.378 OA
ENDBRANCH   3  12
TORSDOF 3
ENDMDL
MODEL 8
REMARK VINA RESULT:    -5.499      2.863      4.407
REMARK INTER + INTRA:          -6.772
REMARK INTER:                  -6.368
REMARK INTRA:                  -0.404
REMARK UNBOUND:                -0.469
REMARK SMILES O=[N+]([O-])c1cc(N2CCOCC2)ccc1O
REMARK SMILES IDX 4 1 5 2 6 3 13 4 14 5 15 6 2 7 1 8 3 9 16 10 7 12 8 13 12 14
REMARK SMILES IDX 9 15 11 16 10 17
REMARK H PARENT 16 11
ROOT
ATOM      1  C   UNL     1      23.170  -0.498  53.993  1.00  0.00    +0.312 A 
ATOM      2  C   UNL     1      22.341   0.338  53.225  1.00  0.00    +0.115 A 
ATOM      3  C   UNL     1      22.873   1.222  52.270  1.00  0.00    +0.044 A 
ATOM      4  C   UNL     1      24.266   1.217  52.101  1.00  0.00    +0.030 A 
ATOM      5  C   UNL     1      25.097   0.387  52.865  1.00  0.00    +0.056 A 
ATOM      6  C   UNL     1      24.556  -0.472  53.813  1.00  0.00    +0.194 A 
ENDROOT
BRANCH   1   7
ATOM      7  N   UNL     1      22.554  -1.390  54.977  1.00  0.00    +0.066 N 
ATOM      8  O   UNL     1      21.398  -1.783  54.767  1.00  0.00    -0.258 OA
ATOM      9  O   UNL     1      23.228  -1.695  55.974  1.00  0.00    -0.258 OA
ENDBRANCH   1   7
BRANCH   6  10
ATOM     10  O   UNL     1      25.461  -1.235  54.497  1.00  0.00    -0.502 OA
ATOM     11  H   UNL     1      25.782  -0.745  55.284  1.00  0.00    +0.293 HD
ENDBRANCH   6  10
BRANCH   3  12
ATOM     12  N   UNL     1      22.004   2.023  51.516  1.00  0.00    -0.367 N 
ATOM     13  C   UNL     1      22.247   2.144  50.061  1.00  0.00    +0.145 C 
ATOM     14  C   UNL     1      21.702   3.342  52.131  1.00  0.00    +0.145 C 
ATOM     15  C   UNL     1      21.067   2.865  49.390  1.00  0.00    +0.181 C 
ATOM     16  C   UNL     1      20.555   4.029  51.371  1.00  0.00    +0.181 C 
ATOM     17  O   UNL     1      20.851   4.161  49.971  1.00  0.00    -0.378 OA
ENDBRANCH   3  12
TORSDOF 3
ENDMDL
MODEL 9
REMARK VINA RESULT:    -5.328      2.727      5.733
REMARK INTER + INTRA:          -6.576
REMARK INTER:                  -6.133
REMARK INTRA:                  -0.443
REMARK UNBOUND:                -0.469
REMARK SMILES O=[N+]([O-])c1cc(N2CCOCC2)ccc1O
REMARK SMILES IDX 4 1 5 2 6 3 13 4 14 5 15 6 2 7 1 8 3 9 16 10 7 12 8 13 12 14
REMARK SMILES IDX 9 15 11 16 10 17
REMARK H PARENT 16 11
ROOT
ATOM      1  C   UNL     1      24.440   1.420  51.929  1.00  0.00    +0.312 A 
ATOM      2  C   UNL     1      25.682   0.832  52.222  1.00  0.00    +0.115 A 
ATOM      3  C   UNL     1      25.800  -0.195  53.175  1.00  0.00    +0.044 A 
ATOM      4  C   UNL     1      24.620  -0.622  53.804  1.00  0.00    +0.030 A 
ATOM      5  C   UNL     1      23.380  -0.038  53.516  1.00  0.00    +0.056 A 
ATOM      6  C   UNL     1      23.283   0.985  52.580  1.00  0.00    +0.194 A 
ENDROOT
BRANCH   1   7
ATOM      7  N   UNL     1      24.386   2.490  50.932  1.00  0.00    +0.066 N 
ATOM      8  O   UNL     1      23.441   2.498  50.130  1.00  0.00    -0.258 OA
ATOM      9  O   UNL     1      25.302   3.329  50.943  1.00  0.00    -0.258 OA
ENDBRANCH   1   7
BRANCH   6  10
ATOM     10  O   UNL     1      22.024   1.478  52.380  1.00  0.00    -0.502 OA
ATOM     11  H   UNL     1      21.745   1.313  51.454  1.00  0.00    +0.293 HD
ENDBRANCH   6  10
BRANCH   3  12
ATOM     12  N   UNL     1      27.058  -0.764  53.421  1.00  0.00    -0.367 N 
ATOM     13  C   UNL     1      28.237   0.131  53.456  1.00  0.00    +0.145 C 
ATOM     14  C   UNL     1      27.333  -1.999  52.642  1.00  0.00    +0.145 C 
ATOM     15  C   UNL     1      29.466  -0.640  53.962  1.00  0.00    +0.181 C 
ATOM     16  C   UNL     1      28.608  -2.681  53.165  1.00  0.00    +0.181 C 
ATOM     17  O   UNL     1      29.734  -1.789  53.142  1.00  0.00    -0.378 OA
ENDBRANCH   3  12
TORSDOF 3
ENDMDL
