REMARK SMILES CCN(C(=O)c1ccc(O)cc1)c1[nH]c(C)cc1C
REMARK SMILES IDX 4 1 5 2 3 3 2 4 1 5 13 6 14 7 18 8 15 9 17 10 19 12 16 13
REMARK SMILES IDX 6 14 7 15 12 16 8 17 11 18 9 19 10 20
REMARK H PARENT 14 11 10 21
ROOT
ATOM      1  C   UNL     1       0.992   1.386   0.602  1.00  0.00    +0.259 C 
ATOM      2  O   UNL     1       1.500   2.205   1.371  1.00  0.00    -0.269 OA
ENDROOT
BRANCH   1   3
ATOM      3  N   UNL     1      -0.359   1.445   0.216  1.00  0.00    -0.294 N 
BRANCH   3   4
ATOM      4  C   UNL     1      -1.021   2.743   0.411  1.00  0.00    +0.124 C 
ATOM      5  C   UNL     1      -1.708   2.844   1.766  1.00  0.00    +0.028 C 
ENDBRANCH   3   4
BRANCH   3   6
ATOM      6  C   UNL     1      -1.103   0.283  -0.046  1.00  0.00    +0.116 A 
ATOM      7  N   UNL     1      -2.224   0.347  -0.847  1.00  0.00    -0.345 N 
ATOM      8  C   UNL     1      -0.997  -1.035   0.389  1.00  0.00    -0.008 A 
ATOM      9  C   UNL     1      -2.768  -0.898  -1.028  1.00  0.00    +0.014 A 
ATOM     10  C   UNL     1      -2.030  -1.772  -0.266  1.00  0.00    +0.028 A 
ATOM     11  H   UNL     1      -2.552   1.183  -1.305  1.00  0.00    +0.168 HD
ATOM     12  C   UNL     1      -0.072  -1.635   1.389  1.00  0.00    +0.048 C 
ATOM     13  C   UNL     1      -3.948  -1.118  -1.897  1.00  0.00    +0.064 C 
ENDBRANCH   3   6
ENDBRANCH   1   3
BRANCH   1  14
ATOM     14  C   UNL     1       1.917   0.405  -0.042  1.00  0.00    +0.040 A 
ATOM     15  C   UNL     1       1.748  -0.022  -1.365  1.00  0.00    +0.017 A 
ATOM     16  C   UNL     1       3.038  -0.028   0.684  1.00  0.00    +0.017 A 
ATOM     17  C   UNL     1       2.663  -0.910  -1.936  1.00  0.00    +0.047 A 
ATOM     18  C   UNL     1       3.954  -0.913   0.111  1.00  0.00    +0.047 A 
ATOM     19  C   UNL     1       3.754  -1.349  -1.195  1.00  0.00    +0.115 A 
BRANCH  19  20
ATOM     20  O   UNL     1       4.621  -2.213  -1.795  1.00  0.00    -0.508 OA
ATOM     21  H   UNL     1       5.335  -2.421  -1.171  1.00  0.00    +0.293 HD
ENDBRANCH  19  20
ENDBRANCH   1  14
TORSDOF 5
