MODEL 1
REMARK VINA RESULT:    -8.713      0.000      0.000
REMARK INTER + INTRA:         -11.785
REMARK INTER:                 -11.005
REMARK INTRA:                  -0.781
REMARK UNBOUND:                -0.781
REMARK SMILES CN(c1ccccn1)c1ccc(-c2cc(O)ccc2[N+](=O)[O-])[nH]1
REMARK SMILES IDX 13 1 14 2 15 3 17 4 18 5 19 6 12 7 9 8 10 9 23 10 11 11 2 13
REMARK SMILES IDX 1 14 3 15 4 16 8 17 5 18 7 19 6 20 20 21 21 22 22 23 16 24
REMARK H PARENT 23 12 16 25
ROOT
ATOM      1  C   UNL     1      27.288  -0.037  52.994  1.00  0.00    +0.079 A 
ATOM      2  C   UNL     1      27.318  -1.433  52.857  1.00  0.00    +0.063 A 
ATOM      3  C   UNL     1      28.493  -2.147  53.100  1.00  0.00    +0.116 A 
ATOM      4  C   UNL     1      29.665  -1.503  53.485  1.00  0.00    +0.053 A 
ATOM      5  C   UNL     1      29.664  -0.116  53.626  1.00  0.00    +0.090 A 
ATOM      6  C   UNL     1      28.480   0.596  53.377  1.00  0.00    +0.278 A 
ENDROOT
BRANCH   1   7
ATOM      7  C   UNL     1      26.032   0.673  52.758  1.00  0.00    +0.054 A 
ATOM      8  C   UNL     1      24.570   2.028  51.681  1.00  0.00    +0.111 A 
ATOM      9  C   UNL     1      23.939   1.539  52.806  1.00  0.00    +0.047 A 
ATOM     10  N   UNL     1      25.834   1.490  51.666  1.00  0.00    -0.341 N 
ATOM     11  C   UNL     1      24.854   0.696  53.484  1.00  0.00    +0.031 A 
ATOM     12  H   UNL     1      26.511   1.664  50.938  1.00  0.00    +0.168 HD
BRANCH   8  13
ATOM     13  N   UNL     1      24.175   2.866  50.677  1.00  0.00    -0.316 N 
ATOM     14  C   UNL     1      23.139   2.367  49.761  1.00  0.00    +0.153 C 
BRANCH  13  15
ATOM     15  C   UNL     1      25.066   3.770  50.024  1.00  0.00    +0.133 A 
ATOM     16  C   UNL     1      24.623   5.050  49.669  1.00  0.00    +0.047 A 
ATOM     17  N   UNL     1      26.320   3.371  49.692  1.00  0.00    -0.239 NA
ATOM     18  C   UNL     1      25.476   5.935  49.010  1.00  0.00    +0.005 A 
ATOM     19  C   UNL     1      27.132   4.245  49.056  1.00  0.00    +0.113 A 
ATOM     20  C   UNL     1      26.762   5.527  48.699  1.00  0.00    +0.020 A 
ENDBRANCH  13  15
ENDBRANCH   8  13
ENDBRANCH   1   7
BRANCH   6  21
ATOM     21  N   UNL     1      28.545   2.038  53.487  1.00  0.00    +0.063 N 
ATOM     22  O   UNL     1      28.336   2.693  52.459  1.00  0.00    -0.258 OA
ATOM     23  O   UNL     1      28.864   2.499  54.592  1.00  0.00    -0.258 OA
ENDBRANCH   6  21
BRANCH   3  24
ATOM     24  O   UNL     1      28.447  -3.501  52.949  1.00  0.00    -0.508 OA
ATOM     25  H   UNL     1      28.551  -3.924  53.817  1.00  0.00    +0.293 HD
ENDBRANCH   3  24
TORSDOF 5
ENDMDL
MODEL 2
REMARK VINA RESULT:    -8.407      1.154      1.444
REMARK INTER + INTRA:         -11.400
REMARK INTER:                 -10.313
REMARK INTRA:                  -1.086
REMARK UNBOUND:                -0.781
REMARK SMILES CN(c1ccccn1)c1ccc(-c2cc(O)ccc2[N+](=O)[O-])[nH]1
REMARK SMILES IDX 13 1 14 2 15 3 17 4 18 5 19 6 12 7 9 8 10 9 23 10 11 11 2 13
REMARK SMILES IDX 1 14 3 15 4 16 8 17 5 18 7 19 6 20 20 21 21 22 22 23 16 24
REMARK H PARENT 23 12 16 25
ROOT
ATOM      1  C   UNL     1      26.832  -0.403  53.082  1.00  0.00    +0.079 A 
ATOM      2  C   UNL     1      27.143  -1.772  53.081  1.00  0.00    +0.063 A 
ATOM      3  C   UNL     1      28.467  -2.200  53.203  1.00  0.00    +0.116 A 
ATOM      4  C   UNL     1      29.513  -1.291  53.329  1.00  0.00    +0.053 A 
ATOM      5  C   UNL     1      29.231   0.074  53.330  1.00  0.00    +0.090 A 
ATOM      6  C   UNL     1      27.899   0.498  53.204  1.00  0.00    +0.278 A 
ENDROOT
BRANCH   1   7
ATOM      7  C   UNL     1      25.431   0.005  52.980  1.00  0.00    +0.054 A 
ATOM      8  C   UNL     1      23.617   1.040  52.104  1.00  0.00    +0.111 A 
ATOM      9  C   UNL     1      23.206   0.354  53.227  1.00  0.00    +0.047 A 
ATOM     10  N   UNL     1      24.965   0.814  51.967  1.00  0.00    -0.341 N 
ATOM     11  C   UNL     1      24.341  -0.289  53.780  1.00  0.00    +0.031 A 
ATOM     12  H   UNL     1      25.523   1.183  51.212  1.00  0.00    +0.168 HD
BRANCH   8  13
ATOM     13  N   UNL     1      22.961   1.819  51.192  1.00  0.00    -0.316 N 
ATOM     14  C   UNL     1      21.979   1.149  50.328  1.00  0.00    +0.153 C 
BRANCH  13  15
ATOM     15  C   UNL     1      23.574   2.927  50.533  1.00  0.00    +0.133 A 
ATOM     16  C   UNL     1      23.135   3.310  49.260  1.00  0.00    +0.047 A 
ATOM     17  N   UNL     1      24.620   3.570  51.111  1.00  0.00    -0.239 NA
ATOM     18  C   UNL     1      23.740   4.376  48.596  1.00  0.00    +0.005 A 
ATOM     19  C   UNL     1      25.191   4.604  50.452  1.00  0.00    +0.113 A 
ATOM     20  C   UNL     1      24.790   5.043  49.205  1.00  0.00    +0.020 A 
ENDBRANCH  13  15
ENDBRANCH   8  13
ENDBRANCH   1   7
BRANCH   6  21
ATOM     21  N   UNL     1      27.665   1.926  53.159  1.00  0.00    +0.063 N 
ATOM     22  O   UNL     1      27.671   2.464  52.045  1.00  0.00    -0.258 OA
ATOM     23  O   UNL     1      27.536   2.505  54.247  1.00  0.00    -0.258 OA
ENDBRANCH   6  21
BRANCH   3  24
ATOM     24  O   UNL     1      28.695  -3.544  53.196  1.00  0.00    -0.508 OA
ATOM     25  H   UNL     1      29.648  -3.707  53.108  1.00  0.00    +0.293 HD
ENDBRANCH   3  24
TORSDOF 5
ENDMDL
MODEL 3
REMARK VINA RESULT:    -8.332      2.468      4.230
REMARK INTER + INTRA:         -11.305
REMARK INTER:                 -11.196
REMARK INTRA:                  -0.109
REMARK UNBOUND:                -0.781
REMARK SMILES CN(c1ccccn1)c1ccc(-c2cc(O)ccc2[N+](=O)[O-])[nH]1
REMARK SMILES IDX 13 1 14 2 15 3 17 4 18 5 19 6 12 7 9 8 10 9 23 10 11 11 2 13
REMARK SMILES IDX 1 14 3 15 4 16 8 17 5 18 7 19 6 20 20 21 21 22 22 23 16 24
REMARK H PARENT 23 12 16 25
ROOT
ATOM      1  C   UNL     1      27.407   0.053  53.187  1.00  0.00    +0.079 A 
ATOM      2  C   UNL     1      27.346  -1.334  52.984  1.00  0.00    +0.063 A 
ATOM      3  C   UNL     1      28.494  -2.121  53.099  1.00  0.00    +0.116 A 
ATOM      4  C   UNL     1      29.727  -1.561  53.418  1.00  0.00    +0.053 A 
ATOM      5  C   UNL     1      29.816  -0.185  53.622  1.00  0.00    +0.090 A 
ATOM      6  C   UNL     1      28.660   0.601  53.502  1.00  0.00    +0.278 A 
ENDROOT
BRANCH   1   7
ATOM      7  C   UNL     1      26.179   0.840  53.085  1.00  0.00    +0.054 A 
ATOM      8  C   UNL     1      24.085   1.361  52.396  1.00  0.00    +0.111 A 
ATOM      9  C   UNL     1      24.506   2.360  53.249  1.00  0.00    +0.047 A 
ATOM     10  N   UNL     1      25.108   0.449  52.311  1.00  0.00    -0.341 N 
ATOM     11  C   UNL     1      25.818   2.038  53.676  1.00  0.00    +0.031 A 
ATOM     12  H   UNL     1      25.062  -0.400  51.767  1.00  0.00    +0.168 HD
BRANCH   8  13
ATOM     13  N   UNL     1      22.926   1.152  51.702  1.00  0.00    -0.316 N 
ATOM     14  C   UNL     1      22.524   2.193  50.746  1.00  0.00    +0.153 C 
BRANCH  13  15
ATOM     15  C   UNL     1      21.795   0.485  52.262  1.00  0.00    +0.133 A 
ATOM     16  C   UNL     1      20.523   0.694  51.716  1.00  0.00    +0.047 A 
ATOM     17  N   UNL     1      21.941  -0.302  53.358  1.00  0.00    -0.239 NA
ATOM     18  C   UNL     1      19.406   0.067  52.268  1.00  0.00    +0.005 A 
ATOM     19  C   UNL     1      20.847  -0.903  53.876  1.00  0.00    +0.113 A 
ATOM     20  C   UNL     1      19.569  -0.754  53.371  1.00  0.00    +0.020 A 
ENDBRANCH  13  15
ENDBRANCH   8  13
ENDBRANCH   1   7
BRANCH   6  21
ATOM     21  N   UNL     1      28.815   2.030  53.673  1.00  0.00    +0.063 N 
ATOM     22  O   UNL     1      28.677   2.737  52.667  1.00  0.00    -0.258 OA
ATOM     23  O   UNL     1      29.134   2.425  54.804  1.00  0.00    -0.258 OA
ENDBRANCH   6  21
BRANCH   3  24
ATOM     24  O   UNL     1      28.358  -3.462  52.889  1.00  0.00    -0.508 OA
ATOM     25  H   UNL     1      29.210  -3.899  53.055  1.00  0.00    +0.293 HD
ENDBRANCH   3  24
TORSDOF 5
ENDMDL
MODEL 4
REMARK VINA RESULT:    -8.299      1.334      2.717
REMARK INTER + INTRA:         -11.263
REMARK INTER:                 -10.708
REMARK INTRA:                  -0.555
REMARK UNBOUND:                -0.781
REMARK SMILES CN(c1ccccn1)c1ccc(-c2cc(O)ccc2[N+](=O)[O-])[nH]1
REMARK SMILES IDX 13 1 14 2 15 3 17 4 18 5 19 6 12 7 9 8 10 9 23 10 11 11 2 13
REMARK SMILES IDX 1 14 3 15 4 16 8 17 5 18 7 19 6 20 20 21 21 22 22 23 16 24
REMARK H PARENT 23 12 16 25
ROOT
ATOM      1  C   UNL     1      27.620   0.188  53.169  1.00  0.00    +0.079 A 
ATOM      2  C   UNL     1      27.469  -1.185  52.923  1.00  0.00    +0.063 A 
ATOM      3  C   UNL     1      28.539  -2.063  53.110  1.00  0.00    +0.116 A 
ATOM      4  C   UNL     1      29.780  -1.609  53.544  1.00  0.00    +0.053 A 
ATOM      5  C   UNL     1      29.958  -0.249  53.793  1.00  0.00    +0.090 A 
ATOM      6  C   UNL     1      28.880   0.629  53.600  1.00  0.00    +0.278 A 
ENDROOT
BRANCH   1   7
ATOM      7  C   UNL     1      26.469   1.072  52.989  1.00  0.00    +0.054 A 
ATOM      8  C   UNL     1      24.989   2.369  51.868  1.00  0.00    +0.111 A 
ATOM      9  C   UNL     1      24.626   2.374  53.199  1.00  0.00    +0.047 A 
ATOM     10  N   UNL     1      26.102   1.573  51.759  1.00  0.00    -0.341 N 
ATOM     11  C   UNL     1      25.555   1.568  53.902  1.00  0.00    +0.031 A 
ATOM     12  H   UNL     1      26.570   1.376  50.886  1.00  0.00    +0.168 HD
BRANCH   8  13
ATOM     13  N   UNL     1      24.462   2.960  50.754  1.00  0.00    -0.316 N 
ATOM     14  C   UNL     1      24.426   4.429  50.732  1.00  0.00    +0.153 C 
BRANCH  13  15
ATOM     15  C   UNL     1      23.380   2.396  50.013  1.00  0.00    +0.133 A 
ATOM     16  C   UNL     1      23.103   2.862  48.722  1.00  0.00    +0.047 A 
ATOM     17  N   UNL     1      22.585   1.453  50.578  1.00  0.00    -0.239 NA
ATOM     18  C   UNL     1      22.035   2.335  47.995  1.00  0.00    +0.005 A 
ATOM     19  C   UNL     1      21.557   0.953  49.856  1.00  0.00    +0.113 A 
ATOM     20  C   UNL     1      21.245   1.355  48.572  1.00  0.00    +0.020 A 
ENDBRANCH  13  15
ENDBRANCH   8  13
ENDBRANCH   1   7
BRANCH   6  21
ATOM     21  N   UNL     1      29.131   2.036  53.823  1.00  0.00    +0.063 N 
ATOM     22  O   UNL     1      29.526   2.368  54.948  1.00  0.00    -0.258 OA
ATOM     23  O   UNL     1      28.873   2.805  52.886  1.00  0.00    -0.258 OA
ENDBRANCH   6  21
BRANCH   3  24
ATOM     24  O   UNL     1      28.319  -3.384  52.852  1.00  0.00    -0.508 OA
ATOM     25  H   UNL     1      27.373  -3.578  52.963  1.00  0.00    +0.293 HD
ENDBRANCH   3  24
TORSDOF 5
ENDMDL
MODEL 5
REMARK VINA RESULT:    -7.709      4.216      7.243
REMARK INTER + INTRA:         -10.518
REMARK INTER:                  -9.994
REMARK INTRA:                  -0.524
REMARK UNBOUND:                -0.781
REMARK SMILES CN(c1ccccn1)c1ccc(-c2cc(O)ccc2[N+](=O)[O-])[nH]1
REMARK SMILES IDX 13 1 14 2 15 3 17 4 18 5 19 6 12 7 9 8 10 9 23 10 11 11 2 13
REMARK SMILES IDX 1 14 3 15 4 16 8 17 5 18 7 19 6 20 20 21 21 22 22 23 16 24
REMARK H PARENT 23 12 16 25
ROOT
ATOM      1  C   UNL     1      21.106  -0.542  53.379  1.00  0.00    +0.079 A 
ATOM      2  C   UNL     1      20.137  -1.390  53.937  1.00  0.00    +0.063 A 
ATOM      3  C   UNL     1      18.815  -1.351  53.488  1.00  0.00    +0.116 A 
ATOM      4  C   UNL     1      18.418  -0.480  52.479  1.00  0.00    +0.053 A 
ATOM      5  C   UNL     1      19.361   0.375  51.909  1.00  0.00    +0.090 A 
ATOM      6  C   UNL     1      20.687   0.334  52.368  1.00  0.00    +0.278 A 
ENDROOT
BRANCH   1   7
ATOM      7  C   UNL     1      22.485  -0.631  53.857  1.00  0.00    +0.054 A 
ATOM      8  C   UNL     1      24.732  -0.350  53.811  1.00  0.00    +0.111 A 
ATOM      9  C   UNL     1      24.412  -0.978  54.997  1.00  0.00    +0.047 A 
ATOM     10  N   UNL     1      23.554  -0.144  53.136  1.00  0.00    -0.341 N 
ATOM     11  C   UNL     1      23.007  -1.160  55.025  1.00  0.00    +0.031 A 
ATOM     12  H   UNL     1      23.492   0.319  52.242  1.00  0.00    +0.168 HD
BRANCH   8  13
ATOM     13  N   UNL     1      25.913   0.067  53.263  1.00  0.00    -0.316 N 
ATOM     14  C   UNL     1      25.831   0.878  52.041  1.00  0.00    +0.153 C 
BRANCH  13  15
ATOM     15  C   UNL     1      27.104  -0.719  53.296  1.00  0.00    +0.133 A 
ATOM     16  C   UNL     1      28.317  -0.129  53.674  1.00  0.00    +0.047 A 
ATOM     17  N   UNL     1      27.076  -2.017  52.903  1.00  0.00    -0.239 NA
ATOM     18  C   UNL     1      29.493  -0.879  53.688  1.00  0.00    +0.005 A 
ATOM     19  C   UNL     1      28.226  -2.728  52.927  1.00  0.00    +0.113 A 
ATOM     20  C   UNL     1      29.448  -2.211  53.310  1.00  0.00    +0.020 A 
ENDBRANCH  13  15
ENDBRANCH   8  13
ENDBRANCH   1   7
BRANCH   6  21
ATOM     21  N   UNL     1      21.614   1.277  51.780  1.00  0.00    +0.063 N 
ATOM     22  O   UNL     1      22.178   0.936  50.732  1.00  0.00    -0.258 OA
ATOM     23  O   UNL     1      21.814   2.328  52.406  1.00  0.00    -0.258 OA
ENDBRANCH   6  21
BRANCH   3  24
ATOM     24  O   UNL     1      17.928  -2.204  54.075  1.00  0.00    -0.508 OA
ATOM     25  H   UNL     1      17.780  -2.965  53.490  1.00  0.00    +0.293 HD
ENDBRANCH   3  24
TORSDOF 5
ENDMDL
MODEL 6
REMARK VINA RESULT:    -7.648      2.063      3.595
REMARK INTER + INTRA:         -10.440
REMARK INTER:                  -9.743
REMARK INTRA:                  -0.697
REMARK UNBOUND:                -0.781
REMARK SMILES CN(c1ccccn1)c1ccc(-c2cc(O)ccc2[N+](=O)[O-])[nH]1
REMARK SMILES IDX 13 1 14 2 15 3 17 4 18 5 19 6 12 7 9 8 10 9 23 10 11 11 2 13
REMARK SMILES IDX 1 14 3 15 4 16 8 17 5 18 7 19 6 20 20 21 21 22 22 23 16 24
REMARK H PARENT 23 12 16 25
ROOT
ATOM      1  C   UNL     1      27.171  -0.005  53.781  1.00  0.00    +0.079 A 
ATOM      2  C   UNL     1      27.756   1.164  54.291  1.00  0.00    +0.063 A 
ATOM      3  C   UNL     1      29.142   1.339  54.258  1.00  0.00    +0.116 A 
ATOM      4  C   UNL     1      29.981   0.368  53.719  1.00  0.00    +0.053 A 
ATOM      5  C   UNL     1      29.425  -0.804  53.208  1.00  0.00    +0.090 A 
ATOM      6  C   UNL     1      28.032  -0.975  53.248  1.00  0.00    +0.278 A 
ENDROOT
BRANCH   1   7
ATOM      7  C   UNL     1      25.715  -0.139  53.809  1.00  0.00    +0.054 A 
ATOM      8  C   UNL     1      23.573   0.207  53.157  1.00  0.00    +0.111 A 
ATOM      9  C   UNL     1      23.550  -0.658  54.230  1.00  0.00    +0.047 A 
ATOM     10  N   UNL     1      24.891   0.507  52.913  1.00  0.00    -0.341 N 
ATOM     11  C   UNL     1      24.888  -0.871  54.644  1.00  0.00    +0.031 A 
ATOM     12  H   UNL     1      25.202   1.108  52.164  1.00  0.00    +0.168 HD
BRANCH   8  13
ATOM     13  N   UNL     1      22.595   0.748  52.370  1.00  0.00    -0.316 N 
ATOM     14  C   UNL     1      21.452  -0.115  52.040  1.00  0.00    +0.153 C 
BRANCH  13  15
ATOM     15  C   UNL     1      22.866   1.686  51.328  1.00  0.00    +0.133 A 
ATOM     16  C   UNL     1      22.362   1.461  50.042  1.00  0.00    +0.047 A 
ATOM     17  N   UNL     1      23.659   2.760  51.567  1.00  0.00    -0.239 NA
ATOM     18  C   UNL     1      22.638   2.357  49.009  1.00  0.00    +0.005 A 
ATOM     19  C   UNL     1      23.912   3.618  50.553  1.00  0.00    +0.113 A 
ATOM     20  C   UNL     1      23.427   3.464  49.269  1.00  0.00    +0.020 A 
ENDBRANCH  13  15
ENDBRANCH   8  13
ENDBRANCH   1   7
BRANCH   6  21
ATOM     21  N   UNL     1      27.510  -2.230  52.751  1.00  0.00    +0.063 N 
ATOM     22  O   UNL     1      28.088  -3.263  53.110  1.00  0.00    -0.258 OA
ATOM     23  O   UNL     1      26.559  -2.164  51.959  1.00  0.00    -0.258 OA
ENDBRANCH   6  21
BRANCH   3  24
ATOM     24  O   UNL     1      29.640   2.500  54.770  1.00  0.00    -0.508 OA
ATOM     25  H   UNL     1      29.682   3.168  54.066  1.00  0.00    +0.293 HD
ENDBRANCH   3  24
TORSDOF 5
ENDMDL
MODEL 7
REMARK VINA RESULT:    -7.398      2.632      3.859
REMARK INTER + INTRA:         -10.124
REMARK INTER:                  -9.330
REMARK INTRA:                  -0.794
REMARK UNBOUND:                -0.781
REMARK SMILES CN(c1ccccn1)c1ccc(-c2cc(O)ccc2[N+](=O)[O-])[nH]1
REMARK SMILES IDX 13 1 14 2 15 3 17 4 18 5 19 6 12 7 9 8 10 9 23 10 11 11 2 13
REMARK SMILES IDX 1 14 3 15 4 16 8 17 5 18 7 19 6 20 20 21 21 22 22 23 16 24
REMARK H PARENT 23 12 16 25
ROOT
ATOM      1  C   UNL     1      23.562   0.633  52.996  1.00  0.00    +0.079 A 
ATOM      2  C   UNL     1      22.354   0.148  53.520  1.00  0.00    +0.063 A 
ATOM      3  C   UNL     1      22.354  -0.799  54.547  1.00  0.00    +0.116 A 
ATOM      4  C   UNL     1      23.542  -1.287  55.082  1.00  0.00    +0.053 A 
ATOM      5  C   UNL     1      24.756  -0.823  54.577  1.00  0.00    +0.090 A 
ATOM      6  C   UNL     1      24.749   0.125  53.542  1.00  0.00    +0.278 A 
ENDROOT
BRANCH   1   7
ATOM      7  C   UNL     1      23.521   1.643  51.939  1.00  0.00    +0.054 A 
ATOM      8  C   UNL     1      23.907   3.642  50.947  1.00  0.00    +0.111 A 
ATOM      9  C   UNL     1      23.224   2.852  50.046  1.00  0.00    +0.047 A 
ATOM     10  N   UNL     1      24.081   2.894  52.084  1.00  0.00    -0.341 N 
ATOM     11  C   UNL     1      22.977   1.603  50.667  1.00  0.00    +0.031 A 
ATOM     12  H   UNL     1      24.571   3.221  52.904  1.00  0.00    +0.168 HD
BRANCH   8  13
ATOM     13  N   UNL     1      24.397   4.917  50.888  1.00  0.00    -0.316 N 
ATOM     14  C   UNL     1      23.428   6.011  51.038  1.00  0.00    +0.153 C 
BRANCH  13  15
ATOM     15  C   UNL     1      25.489   5.290  50.048  1.00  0.00    +0.133 A 
ATOM     16  C   UNL     1      26.349   4.306  49.545  1.00  0.00    +0.047 A 
ATOM     17  N   UNL     1      25.732   6.600  49.787  1.00  0.00    -0.239 NA
ATOM     18  C   UNL     1      27.434   4.660  48.742  1.00  0.00    +0.005 A 
ATOM     19  C   UNL     1      26.786   6.921  49.004  1.00  0.00    +0.113 A 
ATOM     20  C   UNL     1      27.657   5.997  48.460  1.00  0.00    +0.020 A 
ENDBRANCH  13  15
ENDBRANCH   8  13
ENDBRANCH   1   7
BRANCH   6  21
ATOM     21  N   UNL     1      26.035   0.535  53.019  1.00  0.00    +0.063 N 
ATOM     22  O   UNL     1      26.534  -0.168  52.132  1.00  0.00    -0.258 OA
ATOM     23  O   UNL     1      26.560   1.527  53.543  1.00  0.00    -0.258 OA
ENDBRANCH   6  21
BRANCH   3  24
ATOM     24  O   UNL     1      21.143  -1.223  55.009  1.00  0.00    -0.508 OA
ATOM     25  H   UNL     1      20.823  -0.604  55.685  1.00  0.00    +0.293 HD
ENDBRANCH   3  24
TORSDOF 5
ENDMDL
MODEL 8
REMARK VINA RESULT:    -7.222      2.750      6.400
REMARK INTER + INTRA:          -9.903
REMARK INTER:                  -9.311
REMARK INTRA:                  -0.592
REMARK UNBOUND:                -0.781
REMARK SMILES CN(c1ccccn1)c1ccc(-c2cc(O)ccc2[N+](=O)[O-])[nH]1
REMARK SMILES IDX 13 1 14 2 15 3 17 4 18 5 19 6 12 7 9 8 10 9 23 10 11 11 2 13
REMARK SMILES IDX 1 14 3 15 4 16 8 17 5 18 7 19 6 20 20 21 21 22 22 23 16 24
REMARK H PARENT 23 12 16 25
ROOT
ATOM      1  C   UNL     1      25.041   3.481  50.579  1.00  0.00    +0.079 A 
ATOM      2  C   UNL     1      26.267   3.427  49.898  1.00  0.00    +0.063 A 
ATOM      3  C   UNL     1      26.735   4.533  49.185  1.00  0.00    +0.116 A 
ATOM      4  C   UNL     1      26.008   5.718  49.129  1.00  0.00    +0.053 A 
ATOM      5  C   UNL     1      24.786   5.798  49.795  1.00  0.00    +0.090 A 
ATOM      6  C   UNL     1      24.319   4.682  50.506  1.00  0.00    +0.278 A 
ENDROOT
BRANCH   1   7
ATOM      7  C   UNL     1      24.598   2.311  51.336  1.00  0.00    +0.054 A 
ATOM      8  C   UNL     1      24.792   0.496  52.677  1.00  0.00    +0.111 A 
ATOM      9  C   UNL     1      23.460   0.634  52.348  1.00  0.00    +0.047 A 
ATOM     10  N   UNL     1      25.465   1.522  52.059  1.00  0.00    -0.341 N 
ATOM     11  C   UNL     1      23.337   1.765  51.504  1.00  0.00    +0.031 A 
ATOM     12  H   UNL     1      26.459   1.676  52.146  1.00  0.00    +0.168 HD
BRANCH   8  13
ATOM     13  N   UNL     1      25.477  -0.399  53.449  1.00  0.00    -0.316 N 
ATOM     14  C   UNL     1      24.821  -0.852  54.684  1.00  0.00    +0.153 C 
BRANCH  13  15
ATOM     15  C   UNL     1      26.898  -0.384  53.582  1.00  0.00    +0.133 A 
ATOM     16  C   UNL     1      27.663  -1.400  52.996  1.00  0.00    +0.047 A 
ATOM     17  N   UNL     1      27.503   0.578  54.324  1.00  0.00    -0.239 NA
ATOM     18  C   UNL     1      29.051  -1.409  53.137  1.00  0.00    +0.005 A 
ATOM     19  C   UNL     1      28.849   0.552  54.446  1.00  0.00    +0.113 A 
ATOM     20  C   UNL     1      29.661  -0.409  53.876  1.00  0.00    +0.020 A 
ENDBRANCH  13  15
ENDBRANCH   8  13
ENDBRANCH   1   7
BRANCH   6  21
ATOM     21  N   UNL     1      23.022   4.799  51.136  1.00  0.00    +0.063 N 
ATOM     22  O   UNL     1      22.028   4.635  50.418  1.00  0.00    -0.258 OA
ATOM     23  O   UNL     1      23.010   5.114  52.335  1.00  0.00    -0.258 OA
ENDBRANCH   6  21
BRANCH   3  24
ATOM     24  O   UNL     1      27.934   4.408  48.549  1.00  0.00    -0.508 OA
ATOM     25  H   UNL     1      27.939   3.586  48.033  1.00  0.00    +0.293 HD
ENDBRANCH   3  24
TORSDOF 5
ENDMDL
MODEL 9
REMARK VINA RESULT:    -7.168      4.908      7.294
REMARK INTER + INTRA:          -9.834
REMARK INTER:                  -9.037
REMARK INTRA:                  -0.797
REMARK UNBOUND:                -0.781
REMARK SMILES CN(c1ccccn1)c1ccc(-c2cc(O)ccc2[N+](=O)[O-])[nH]1
REMARK SMILES IDX 13 1 14 2 15 3 17 4 18 5 19 6 12 7 9 8 10 9 23 10 11 11 2 13
REMARK SMILES IDX 1 14 3 15 4 16 8 17 5 18 7 19 6 20 20 21 21 22 22 23 16 24
REMARK H PARENT 23 12 16 25
ROOT
ATOM      1  C   UNL     1      19.819  -0.460  52.804  1.00  0.00    +0.079 A 
ATOM      2  C   UNL     1      18.652  -1.097  53.252  1.00  0.00    +0.063 A 
ATOM      3  C   UNL     1      17.447  -0.942  52.561  1.00  0.00    +0.116 A 
ATOM      4  C   UNL     1      17.366  -0.159  51.414  1.00  0.00    +0.053 A 
ATOM      5  C   UNL     1      18.511   0.487  50.949  1.00  0.00    +0.090 A 
ATOM      6  C   UNL     1      19.717   0.330  51.649  1.00  0.00    +0.278 A 
ENDROOT
BRANCH   1   7
ATOM      7  C   UNL     1      21.067  -0.669  53.538  1.00  0.00    +0.054 A 
ATOM      8  C   UNL     1      23.296  -0.594  53.928  1.00  0.00    +0.111 A 
ATOM      9  C   UNL     1      22.698  -1.178  55.025  1.00  0.00    +0.047 A 
ATOM     10  N   UNL     1      22.294  -0.289  53.040  1.00  0.00    -0.341 N 
ATOM     11  C   UNL     1      21.304  -1.231  54.780  1.00  0.00    +0.031 A 
ATOM     12  H   UNL     1      22.448   0.168  52.154  1.00  0.00    +0.168 HD
BRANCH   8  13
ATOM     13  N   UNL     1      24.594  -0.292  53.621  1.00  0.00    -0.316 N 
ATOM     14  C   UNL     1      25.598  -0.523  54.669  1.00  0.00    +0.153 C 
BRANCH  13  15
ATOM     15  C   UNL     1      24.957   0.797  52.773  1.00  0.00    +0.133 A 
ATOM     16  C   UNL     1      26.164   0.754  52.063  1.00  0.00    +0.047 A 
ATOM     17  N   UNL     1      24.168   1.898  52.700  1.00  0.00    -0.239 NA
ATOM     18  C   UNL     1      26.542   1.821  51.249  1.00  0.00    +0.005 A 
ATOM     19  C   UNL     1      24.551   2.920  51.903  1.00  0.00    +0.113 A 
ATOM     20  C   UNL     1      25.717   2.929  51.161  1.00  0.00    +0.020 A 
ENDBRANCH  13  15
ENDBRANCH   8  13
ENDBRANCH   1   7
BRANCH   6  21
ATOM     21  N   UNL     1      20.864   1.061  51.155  1.00  0.00    +0.063 N 
ATOM     22  O   UNL     1      21.592   0.485  50.338  1.00  0.00    -0.258 OA
ATOM     23  O   UNL     1      21.057   2.187  51.635  1.00  0.00    -0.258 OA
ENDBRANCH   6  21
BRANCH   3  24
ATOM     24  O   UNL     1      16.354  -1.591  53.054  1.00  0.00    -0.508 OA
ATOM     25  H   UNL     1      15.550  -1.140  52.748  1.00  0.00    +0.293 HD
ENDBRANCH   3  24
TORSDOF 5
ENDMDL
