REMARK SMILES CN(C(=O)c1ccccc1)c1ccc(-c2ccc(O)c([N+](=O)[O-])c2)[nH]1
REMARK SMILES IDX 11 1 12 2 13 3 14 4 25 5 2 7 1 8 3 9 4 10 5 11 6 12 10 13
REMARK SMILES IDX 7 14 9 15 8 16 15 17 16 18 24 19 17 20 20 21 18 22 21 23
REMARK SMILES IDX 22 24 23 25 19 26
REMARK H PARENT 25 6 19 27
ROOT
ATOM      1  C   UNL     1      -0.526   1.346  -0.642  1.00  0.00    +0.113 A 
ATOM      2  C   UNL     1      -0.035   2.601  -0.940  1.00  0.00    +0.047 A 
ATOM      3  C   UNL     1       1.365   2.583  -0.717  1.00  0.00    +0.030 A 
ATOM      4  C   UNL     1       1.722   1.314  -0.290  1.00  0.00    +0.047 A 
ATOM      5  N   UNL     1       0.551   0.590  -0.242  1.00  0.00    -0.341 N 
ATOM      6  H   UNL     1       0.458  -0.379   0.044  1.00  0.00    +0.168 HD
ENDROOT
BRANCH   1   7
ATOM      7  N   UNL     1      -1.838   0.845  -0.694  1.00  0.00    -0.297 N 
ATOM      8  C   UNL     1      -2.927   1.698  -1.177  1.00  0.00    +0.155 C 
BRANCH   7   9
ATOM      9  C   UNL     1      -2.054  -0.486  -0.279  1.00  0.00    +0.259 C 
ATOM     10  O   UNL     1      -1.168  -1.308  -0.033  1.00  0.00    -0.269 OA
BRANCH   9  11
ATOM     11  C   UNL     1      -3.446  -0.955  -0.101  1.00  0.00    +0.040 A 
ATOM     12  C   UNL     1      -3.893  -2.048  -0.849  1.00  0.00    +0.014 A 
ATOM     13  C   UNL     1      -4.281  -0.353   0.846  1.00  0.00    +0.014 A 
ATOM     14  C   UNL     1      -5.196  -2.514  -0.677  1.00  0.00    +0.001 A 
ATOM     15  C   UNL     1      -5.584  -0.824   1.014  1.00  0.00    +0.001 A 
ATOM     16  C   UNL     1      -6.040  -1.900   0.250  1.00  0.00    +0.000 A 
ENDBRANCH   9  11
ENDBRANCH   7   9
ENDBRANCH   1   7
BRANCH   4  17
ATOM     17  C   UNL     1       3.027   0.758   0.075  1.00  0.00    +0.005 A 
ATOM     18  C   UNL     1       4.030   1.593   0.599  1.00  0.00    +0.014 A 
ATOM     19  C   UNL     1       3.311  -0.602  -0.097  1.00  0.00    +0.100 A 
ATOM     20  C   UNL     1       5.288   1.089   0.955  1.00  0.00    +0.054 A 
ATOM     21  C   UNL     1       4.576  -1.091   0.254  1.00  0.00    +0.311 A 
ATOM     22  C   UNL     1       5.564  -0.264   0.784  1.00  0.00    +0.194 A 
BRANCH  21  23
ATOM     23  N   UNL     1       4.843  -2.497   0.044  1.00  0.00    +0.066 N 
ATOM     24  O   UNL     1       5.674  -2.797  -0.824  1.00  0.00    -0.258 OA
ATOM     25  O   UNL     1       4.175  -3.299   0.713  1.00  0.00    -0.258 OA
ENDBRANCH  21  23
BRANCH  22  26
ATOM     26  O   UNL     1       6.778  -0.764   1.152  1.00  0.00    -0.502 OA
ATOM     27  H   UNL     1       7.359  -0.042   1.446  1.00  0.00    +0.293 HD
ENDBRANCH  22  26
ENDBRANCH   4  17
TORSDOF 6
