MODEL 1
REMARK VINA RESULT:    -8.094      0.000      0.000
REMARK INTER + INTRA:         -11.119
REMARK INTER:                 -10.696
REMARK INTRA:                  -0.423
REMARK UNBOUND:                -0.423
REMARK SMILES COc1ccc(N2CCN(c3cc(C(=O)O)cc(O)c3O)CC2)[nH]1
REMARK SMILES IDX 7 1 8 2 9 3 10 4 22 5 23 6 6 7 3 8 4 9 24 10 5 11 2 13 1 14
REMARK SMILES IDX 11 15 12 16 20 17 13 18 18 19 17 20 21 21 14 23 15 24 16 25
REMARK SMILES IDX 19 27
REMARK H PARENT 24 12 21 22 16 26 19 28
ROOT
ATOM      1  N   UNL     1      22.354   0.073  52.486  1.00  0.00    -0.355 N 
ATOM      2  C   UNL     1      23.136   1.237  51.987  1.00  0.00    +0.139 C 
ATOM      3  C   UNL     1      24.658   0.967  52.055  1.00  0.00    +0.138 C 
ATOM      4  N   UNL     1      25.059   0.590  53.436  1.00  0.00    -0.365 N 
ATOM      5  C   UNL     1      24.316  -0.620  53.882  1.00  0.00    +0.138 C 
ATOM      6  C   UNL     1      22.793  -0.364  53.838  1.00  0.00    +0.139 C 
ENDROOT
BRANCH   1   7
ATOM      7  C   UNL     1      21.011   0.038  52.221  1.00  0.00    +0.108 A 
ATOM      8  C   UNL     1      18.833  -0.398  52.663  1.00  0.00    +0.192 A 
ATOM      9  C   UNL     1      18.897   0.204  51.424  1.00  0.00    +0.070 A 
ATOM     10  N   UNL     1      20.120  -0.474  53.133  1.00  0.00    -0.313 N 
ATOM     11  C   UNL     1      20.259   0.493  51.156  1.00  0.00    +0.050 A 
ATOM     12  H   UNL     1      20.359  -0.829  54.044  1.00  0.00    +0.171 HD
BRANCH   8  13
ATOM     13  O   UNL     1      17.850  -0.869  53.429  1.00  0.00    -0.482 OA
ATOM     14  C   UNL     1      17.843  -2.279  53.624  1.00  0.00    +0.280 C 
ENDBRANCH   8  13
ENDBRANCH   1   7
BRANCH   4  15
ATOM     15  C   UNL     1      26.464   0.427  53.555  1.00  0.00    +0.084 A 
ATOM     16  C   UNL     1      27.127  -0.797  53.425  1.00  0.00    +0.045 A 
ATOM     17  C   UNL     1      27.229   1.577  53.820  1.00  0.00    +0.181 A 
ATOM     18  C   UNL     1      28.525  -0.862  53.558  1.00  0.00    +0.065 A 
ATOM     19  C   UNL     1      28.614   1.518  53.953  1.00  0.00    +0.160 A 
ATOM     20  C   UNL     1      29.269   0.297  53.823  1.00  0.00    +0.066 A 
BRANCH  17  21
ATOM     21  O   UNL     1      26.559   2.767  53.945  1.00  0.00    -0.503 OA
ATOM     22  H   UNL     1      25.958   2.601  54.700  1.00  0.00    +0.293 HD
ENDBRANCH  17  21
BRANCH  18  23
ATOM     23  C   UNL     1      29.172  -2.187  53.408  1.00  0.00    +0.335 C 
ATOM     24  O   UNL     1      30.292  -2.479  53.784  1.00  0.00    -0.246 OA
BRANCH  23  25
ATOM     25  O   UNL     1      28.384  -3.087  52.793  1.00  0.00    -0.478 OA
ATOM     26  H   UNL     1      28.752  -3.139  51.886  1.00  0.00    +0.297 HD
ENDBRANCH  23  25
ENDBRANCH  18  23
BRANCH  19  27
ATOM     27  O   UNL     1      29.316   2.661  54.211  1.00  0.00    -0.504 OA
ATOM     28  H   UNL     1      28.789   3.431  53.948  1.00  0.00    +0.293 HD
ENDBRANCH  19  27
ENDBRANCH   4  15
TORSDOF 7
ENDMDL
MODEL 2
REMARK VINA RESULT:    -7.493      1.780      3.415
REMARK INTER + INTRA:         -10.325
REMARK INTER:                  -9.929
REMARK INTRA:                  -0.396
REMARK UNBOUND:                -0.423
REMARK SMILES COc1ccc(N2CCN(c3cc(C(=O)O)cc(O)c3O)CC2)[nH]1
REMARK SMILES IDX 7 1 8 2 9 3 10 4 22 5 23 6 6 7 3 8 4 9 24 10 5 11 2 13 1 14
REMARK SMILES IDX 11 15 12 16 20 17 13 18 18 19 17 20 21 21 14 23 15 24 16 25
REMARK SMILES IDX 19 27
REMARK H PARENT 24 12 21 22 16 26 19 28
ROOT
ATOM      1  N   UNL     1      22.457   1.039  52.284  1.00  0.00    -0.355 N 
ATOM      2  C   UNL     1      22.806  -0.214  53.008  1.00  0.00    +0.139 C 
ATOM      3  C   UNL     1      24.253  -0.168  53.555  1.00  0.00    +0.138 C 
ATOM      4  N   UNL     1      25.216   0.117  52.458  1.00  0.00    -0.365 N 
ATOM      5  C   UNL     1      24.888   1.410  51.800  1.00  0.00    +0.138 C 
ATOM      6  C   UNL     1      23.451   1.377  51.231  1.00  0.00    +0.139 C 
ENDROOT
BRANCH   1   7
ATOM      7  C   UNL     1      21.139   1.274  51.999  1.00  0.00    +0.108 A 
ATOM      8  C   UNL     1      19.239   2.502  51.894  1.00  0.00    +0.192 A 
ATOM      9  C   UNL     1      18.971   1.267  51.340  1.00  0.00    +0.070 A 
ATOM     10  N   UNL     1      20.558   2.489  52.271  1.00  0.00    -0.313 N 
ATOM     11  C   UNL     1      20.166   0.505  51.391  1.00  0.00    +0.050 A 
ATOM     12  H   UNL     1      21.033   3.286  52.661  1.00  0.00    +0.171 HD
BRANCH   8  13
ATOM     13  O   UNL     1      18.530   3.610  52.105  1.00  0.00    -0.482 OA
ATOM     14  C   UNL     1      17.172   3.562  51.682  1.00  0.00    +0.280 C 
ENDBRANCH   8  13
ENDBRANCH   1   7
BRANCH   4  15
ATOM     15  C   UNL     1      26.560   0.073  52.908  1.00  0.00    +0.084 A 
ATOM     16  C   UNL     1      27.271   1.184  53.371  1.00  0.00    +0.045 A 
ATOM     17  C   UNL     1      27.211  -1.174  52.885  1.00  0.00    +0.181 A 
ATOM     18  C   UNL     1      28.603   1.045  53.798  1.00  0.00    +0.065 A 
ATOM     19  C   UNL     1      28.530  -1.317  53.306  1.00  0.00    +0.160 A 
ATOM     20  C   UNL     1      29.233  -0.208  53.765  1.00  0.00    +0.066 A 
BRANCH  17  21
ATOM     21  O   UNL     1      26.496  -2.251  52.426  1.00  0.00    -0.503 OA
ATOM     22  H   UNL     1      27.181  -2.796  51.988  1.00  0.00    +0.293 HD
ENDBRANCH  17  21
BRANCH  18  23
ATOM     23  C   UNL     1      29.305   2.259  54.279  1.00  0.00    +0.335 C 
ATOM     24  O   UNL     1      29.729   2.436  55.406  1.00  0.00    -0.246 OA
BRANCH  23  25
ATOM     25  O   UNL     1      29.441   3.196  53.325  1.00  0.00    -0.478 OA
ATOM     26  H   UNL     1      30.322   3.589  53.506  1.00  0.00    +0.297 HD
ENDBRANCH  23  25
ENDBRANCH  18  23
BRANCH  19  27
ATOM     27  O   UNL     1      29.122  -2.548  53.265  1.00  0.00    -0.504 OA
ATOM     28  H   UNL     1      28.438  -3.234  53.228  1.00  0.00    +0.293 HD
ENDBRANCH  19  27
ENDBRANCH   4  15
TORSDOF 7
ENDMDL
MODEL 3
REMARK VINA RESULT:    -7.389      1.439      1.935
REMARK INTER + INTRA:         -10.188
REMARK INTER:                  -9.694
REMARK INTRA:                  -0.494
REMARK UNBOUND:                -0.423
REMARK SMILES COc1ccc(N2CCN(c3cc(C(=O)O)cc(O)c3O)CC2)[nH]1
REMARK SMILES IDX 7 1 8 2 9 3 10 4 22 5 23 6 6 7 3 8 4 9 24 10 5 11 2 13 1 14
REMARK SMILES IDX 11 15 12 16 20 17 13 18 18 19 17 20 21 21 14 23 15 24 16 25
REMARK SMILES IDX 19 27
REMARK H PARENT 24 12 21 22 16 26 19 28
ROOT
ATOM      1  N   UNL     1      21.089   0.043  52.674  1.00  0.00    -0.355 N 
ATOM      2  C   UNL     1      21.812   1.161  52.008  1.00  0.00    +0.139 C 
ATOM      3  C   UNL     1      23.339   0.916  51.989  1.00  0.00    +0.138 C 
ATOM      4  N   UNL     1      23.846   0.680  53.367  1.00  0.00    -0.365 N 
ATOM      5  C   UNL     1      23.160  -0.488  53.982  1.00  0.00    +0.138 C 
ATOM      6  C   UNL     1      21.633  -0.254  54.026  1.00  0.00    +0.139 C 
ENDROOT
BRANCH   1   7
ATOM      7  C   UNL     1      19.732  -0.033  52.514  1.00  0.00    +0.108 A 
ATOM      8  C   UNL     1      17.713   0.595  51.702  1.00  0.00    +0.192 A 
ATOM      9  C   UNL     1      17.521  -0.531  52.477  1.00  0.00    +0.070 A 
ATOM     10  N   UNL     1      19.057   0.868  51.726  1.00  0.00    -0.313 N 
ATOM     11  C   UNL     1      18.788  -0.933  52.970  1.00  0.00    +0.050 A 
ATOM     12  H   UNL     1      19.482   1.615  51.201  1.00  0.00    +0.171 HD
BRANCH   8  13
ATOM     13  O   UNL     1      16.916   1.392  50.991  1.00  0.00    -0.482 OA
ATOM     14  C   UNL     1      17.223   1.490  49.605  1.00  0.00    +0.280 C 
ENDBRANCH   8  13
ENDBRANCH   1   7
BRANCH   4  15
ATOM     15  C   UNL     1      25.258   0.545  53.397  1.00  0.00    +0.084 A 
ATOM     16  C   UNL     1      25.938  -0.658  53.185  1.00  0.00    +0.045 A 
ATOM     17  C   UNL     1      26.015   1.702  53.655  1.00  0.00    +0.181 A 
ATOM     18  C   UNL     1      27.342  -0.697  53.233  1.00  0.00    +0.065 A 
ATOM     19  C   UNL     1      27.406   1.670  53.705  1.00  0.00    +0.160 A 
ATOM     20  C   UNL     1      28.077   0.469  53.494  1.00  0.00    +0.066 A 
BRANCH  17  21
ATOM     21  O   UNL     1      25.329   2.873  53.861  1.00  0.00    -0.503 OA
ATOM     22  H   UNL     1      25.777   3.253  54.644  1.00  0.00    +0.293 HD
ENDBRANCH  17  21
BRANCH  18  23
ATOM     23  C   UNL     1      28.006  -2.001  53.000  1.00  0.00    +0.335 C 
ATOM     24  O   UNL     1      29.106  -2.324  53.409  1.00  0.00    -0.246 OA
BRANCH  23  25
ATOM     25  O   UNL     1      27.261  -2.842  52.261  1.00  0.00    -0.478 OA
ATOM     26  H   UNL     1      27.645  -3.724  52.451  1.00  0.00    +0.297 HD
ENDBRANCH  23  25
ENDBRANCH  18  23
BRANCH  19  27
ATOM     27  O   UNL     1      28.099   2.819  53.960  1.00  0.00    -0.504 OA
ATOM     28  H   UNL     1      27.541   3.586  53.756  1.00  0.00    +0.293 HD
ENDBRANCH  19  27
ENDBRANCH   4  15
TORSDOF 7
ENDMDL
MODEL 4
REMARK VINA RESULT:    -7.270      1.772      8.592
REMARK INTER + INTRA:         -10.030
REMARK INTER:                  -9.820
REMARK INTRA:                  -0.210
REMARK UNBOUND:                -0.423
REMARK SMILES COc1ccc(N2CCN(c3cc(C(=O)O)cc(O)c3O)CC2)[nH]1
REMARK SMILES IDX 7 1 8 2 9 3 10 4 22 5 23 6 6 7 3 8 4 9 24 10 5 11 2 13 1 14
REMARK SMILES IDX 11 15 12 16 20 17 13 18 18 19 17 20 21 21 14 23 15 24 16 25
REMARK SMILES IDX 19 27
REMARK H PARENT 24 12 21 22 16 26 19 28
ROOT
ATOM      1  N   UNL     1      24.973   0.708  53.161  1.00  0.00    -0.355 N 
ATOM      2  C   UNL     1      24.391  -0.510  53.789  1.00  0.00    +0.139 C 
ATOM      3  C   UNL     1      22.996  -0.837  53.203  1.00  0.00    +0.138 C 
ATOM      4  N   UNL     1      22.088   0.334  53.335  1.00  0.00    -0.365 N 
ATOM      5  C   UNL     1      22.659   1.516  52.636  1.00  0.00    +0.138 C 
ATOM      6  C   UNL     1      24.046   1.870  53.219  1.00  0.00    +0.139 C 
ENDROOT
BRANCH   1   7
ATOM      7  C   UNL     1      26.304   0.958  53.354  1.00  0.00    +0.108 A 
ATOM      8  C   UNL     1      28.448   0.436  53.865  1.00  0.00    +0.192 A 
ATOM      9  C   UNL     1      28.414   1.770  53.515  1.00  0.00    +0.070 A 
ATOM     10  N   UNL     1      27.166  -0.038  53.745  1.00  0.00    -0.313 N 
ATOM     11  C   UNL     1      27.075   2.091  53.178  1.00  0.00    +0.050 A 
ATOM     12  H   UNL     1      26.913  -1.001  53.895  1.00  0.00    +0.171 HD
BRANCH   8  13
ATOM     13  O   UNL     1      29.403  -0.409  54.253  1.00  0.00    -0.482 OA
ATOM     14  C   UNL     1      29.573  -1.562  53.437  1.00  0.00    +0.280 C 
ENDBRANCH   8  13
ENDBRANCH   1   7
BRANCH   4  15
ATOM     15  C   UNL     1      20.773   0.037  52.893  1.00  0.00    +0.084 A 
ATOM     16  C   UNL     1      20.211   0.529  51.711  1.00  0.00    +0.045 A 
ATOM     17  C   UNL     1      19.993  -0.808  53.702  1.00  0.00    +0.181 A 
ATOM     18  C   UNL     1      18.897   0.180  51.353  1.00  0.00    +0.065 A 
ATOM     19  C   UNL     1      18.691  -1.156  53.353  1.00  0.00    +0.160 A 
ATOM     20  C   UNL     1      18.136  -0.664  52.176  1.00  0.00    +0.066 A 
BRANCH  17  21
ATOM     21  O   UNL     1      20.563  -1.279  54.858  1.00  0.00    -0.503 OA
ATOM     22  H   UNL     1      19.890  -1.906  55.193  1.00  0.00    +0.293 HD
ENDBRANCH  17  21
BRANCH  18  23
ATOM     23  C   UNL     1      18.356   0.731  50.088  1.00  0.00    +0.335 C 
ATOM     24  O   UNL     1      18.693   1.777  49.565  1.00  0.00    -0.246 OA
BRANCH  23  25
ATOM     25  O   UNL     1      17.414  -0.055  49.536  1.00  0.00    -0.478 OA
ATOM     26  H   UNL     1      16.754   0.581  49.186  1.00  0.00    +0.297 HD
ENDBRANCH  23  25
ENDBRANCH  18  23
BRANCH  19  27
ATOM     27  O   UNL     1      17.970  -1.980  54.171  1.00  0.00    -0.504 OA
ATOM     28  H   UNL     1      17.028  -1.763  54.100  1.00  0.00    +0.293 HD
ENDBRANCH  19  27
ENDBRANCH   4  15
TORSDOF 7
ENDMDL
MODEL 5
REMARK VINA RESULT:    -6.903      4.346      7.727
REMARK INTER + INTRA:          -9.546
REMARK INTER:                  -9.010
REMARK INTRA:                  -0.535
REMARK UNBOUND:                -0.423
REMARK SMILES COc1ccc(N2CCN(c3cc(C(=O)O)cc(O)c3O)CC2)[nH]1
REMARK SMILES IDX 7 1 8 2 9 3 10 4 22 5 23 6 6 7 3 8 4 9 24 10 5 11 2 13 1 14
REMARK SMILES IDX 11 15 12 16 20 17 13 18 18 19 17 20 21 21 14 23 15 24 16 25
REMARK SMILES IDX 19 27
REMARK H PARENT 24 12 21 22 16 26 19 28
ROOT
ATOM      1  N   UNL     1      24.743   4.319  50.806  1.00  0.00    -0.355 N 
ATOM      2  C   UNL     1      23.829   4.687  51.922  1.00  0.00    +0.139 C 
ATOM      3  C   UNL     1      23.482   3.459  52.798  1.00  0.00    +0.138 C 
ATOM      4  N   UNL     1      22.915   2.366  51.963  1.00  0.00    -0.365 N 
ATOM      5  C   UNL     1      23.879   1.968  50.902  1.00  0.00    +0.138 C 
ATOM      6  C   UNL     1      24.225   3.178  50.005  1.00  0.00    +0.139 C 
ENDROOT
BRANCH   1   7
ATOM      7  C   UNL     1      25.369   5.329  50.126  1.00  0.00    +0.108 A 
ATOM      8  C   UNL     1      26.132   7.438  49.809  1.00  0.00    +0.192 A 
ATOM      9  C   UNL     1      26.515   6.685  48.718  1.00  0.00    +0.070 A 
ATOM     10  N   UNL     1      25.455   6.594  50.654  1.00  0.00    -0.313 N 
ATOM     11  C   UNL     1      26.052   5.361  48.926  1.00  0.00    +0.050 A 
ATOM     12  H   UNL     1      25.104   6.874  51.555  1.00  0.00    +0.171 HD
BRANCH   8  13
ATOM     13  O   UNL     1      26.287   8.710  50.173  1.00  0.00    -0.482 OA
ATOM     14  C   UNL     1      27.631   9.139  50.354  1.00  0.00    +0.280 C 
ENDBRANCH   8  13
ENDBRANCH   1   7
BRANCH   4  15
ATOM     15  C   UNL     1      22.499   1.260  52.748  1.00  0.00    +0.084 A 
ATOM     16  C   UNL     1      23.348   0.522  53.578  1.00  0.00    +0.045 A 
ATOM     17  C   UNL     1      21.144   0.891  52.680  1.00  0.00    +0.181 A 
ATOM     18  C   UNL     1      22.845  -0.560  54.321  1.00  0.00    +0.065 A 
ATOM     19  C   UNL     1      20.641  -0.180  53.413  1.00  0.00    +0.160 A 
ATOM     20  C   UNL     1      21.490  -0.912  54.238  1.00  0.00    +0.066 A 
BRANCH  17  21
ATOM     21  O   UNL     1      20.328   1.628  51.859  1.00  0.00    -0.503 OA
ATOM     22  H   UNL     1      20.607   2.548  52.045  1.00  0.00    +0.293 HD
ENDBRANCH  17  21
BRANCH  18  23
ATOM     23  C   UNL     1      23.793  -1.305  55.184  1.00  0.00    +0.335 C 
ATOM     24  O   UNL     1      25.006  -1.286  55.092  1.00  0.00    -0.246 OA
BRANCH  23  25
ATOM     25  O   UNL     1      23.175  -2.041  56.124  1.00  0.00    -0.478 OA
ATOM     26  H   UNL     1      23.246  -1.494  56.935  1.00  0.00    +0.297 HD
ENDBRANCH  23  25
ENDBRANCH  18  23
BRANCH  19  27
ATOM     27  O   UNL     1      19.317  -0.502  53.316  1.00  0.00    -0.504 OA
ATOM     28  H   UNL     1      19.061  -0.542  52.382  1.00  0.00    +0.293 HD
ENDBRANCH  19  27
ENDBRANCH   4  15
TORSDOF 7
ENDMDL
MODEL 6
REMARK VINA RESULT:    -6.820      3.793      4.975
REMARK INTER + INTRA:          -9.435
REMARK INTER:                  -8.914
REMARK INTRA:                  -0.521
REMARK UNBOUND:                -0.423
REMARK SMILES COc1ccc(N2CCN(c3cc(C(=O)O)cc(O)c3O)CC2)[nH]1
REMARK SMILES IDX 7 1 8 2 9 3 10 4 22 5 23 6 6 7 3 8 4 9 24 10 5 11 2 13 1 14
REMARK SMILES IDX 11 15 12 16 20 17 13 18 18 19 17 20 21 21 14 23 15 24 16 25
REMARK SMILES IDX 19 27
REMARK H PARENT 24 12 21 22 16 26 19 28
ROOT
ATOM      1  N   UNL     1      23.856   3.213  50.050  1.00  0.00    -0.355 N 
ATOM      2  C   UNL     1      25.282   3.637  50.102  1.00  0.00    +0.139 C 
ATOM      3  C   UNL     1      26.181   2.527  50.695  1.00  0.00    +0.138 C 
ATOM      4  N   UNL     1      25.684   2.114  52.035  1.00  0.00    -0.365 N 
ATOM      5  C   UNL     1      24.282   1.626  51.942  1.00  0.00    +0.138 C 
ATOM      6  C   UNL     1      23.363   2.728  51.366  1.00  0.00    +0.139 C 
ENDROOT
BRANCH   1   7
ATOM      7  C   UNL     1      22.990   3.955  49.292  1.00  0.00    +0.108 A 
ATOM      8  C   UNL     1      22.377   5.670  47.945  1.00  0.00    +0.192 A 
ATOM      9  C   UNL     1      21.277   4.855  48.113  1.00  0.00    +0.070 A 
ATOM     10  N   UNL     1      23.405   5.099  48.653  1.00  0.00    -0.313 N 
ATOM     11  C   UNL     1      21.667   3.772  48.941  1.00  0.00    +0.050 A 
ATOM     12  H   UNL     1      24.342   5.464  48.664  1.00  0.00    +0.171 HD
BRANCH   8  13
ATOM     13  O   UNL     1      22.616   6.799  47.280  1.00  0.00    -0.482 OA
ATOM     14  C   UNL     1      21.646   7.155  46.302  1.00  0.00    +0.280 C 
ENDBRANCH   8  13
ENDBRANCH   1   7
BRANCH   4  15
ATOM     15  C   UNL     1      26.540   1.164  52.649  1.00  0.00    +0.084 A 
ATOM     16  C   UNL     1      26.590  -0.190  52.302  1.00  0.00    +0.045 A 
ATOM     17  C   UNL     1      27.391   1.623  53.670  1.00  0.00    +0.181 A 
ATOM     18  C   UNL     1      27.472  -1.059  52.966  1.00  0.00    +0.065 A 
ATOM     19  C   UNL     1      28.266   0.766  54.332  1.00  0.00    +0.160 A 
ATOM     20  C   UNL     1      28.311  -0.580  53.983  1.00  0.00    +0.066 A 
BRANCH  17  21
ATOM     21  O   UNL     1      27.326   2.954  53.996  1.00  0.00    -0.503 OA
ATOM     22  H   UNL     1      27.587   2.960  54.940  1.00  0.00    +0.293 HD
ENDBRANCH  17  21
BRANCH  18  23
ATOM     23  C   UNL     1      27.480  -2.483  52.554  1.00  0.00    +0.335 C 
ATOM     24  O   UNL     1      26.716  -2.998  51.759  1.00  0.00    -0.246 OA
BRANCH  23  25
ATOM     25  O   UNL     1      28.447  -3.196  53.158  1.00  0.00    -0.478 OA
ATOM     26  H   UNL     1      28.602  -3.946  52.546  1.00  0.00    +0.297 HD
ENDBRANCH  23  25
ENDBRANCH  18  23
BRANCH  19  27
ATOM     27  O   UNL     1      29.074   1.257  55.319  1.00  0.00    -0.504 OA
ATOM     28  H   UNL     1      28.530   1.678  56.002  1.00  0.00    +0.293 HD
ENDBRANCH  19  27
ENDBRANCH   4  15
TORSDOF 7
ENDMDL
MODEL 7
REMARK VINA RESULT:    -6.557      4.400      6.432
REMARK INTER + INTRA:          -9.088
REMARK INTER:                  -8.554
REMARK INTRA:                  -0.534
REMARK UNBOUND:                -0.423
REMARK SMILES COc1ccc(N2CCN(c3cc(C(=O)O)cc(O)c3O)CC2)[nH]1
REMARK SMILES IDX 7 1 8 2 9 3 10 4 22 5 23 6 6 7 3 8 4 9 24 10 5 11 2 13 1 14
REMARK SMILES IDX 11 15 12 16 20 17 13 18 18 19 17 20 21 21 14 23 15 24 16 25
REMARK SMILES IDX 19 27
REMARK H PARENT 24 12 21 22 16 26 19 28
ROOT
ATOM      1  N   UNL     1      22.900   3.804  49.604  1.00  0.00    -0.355 N 
ATOM      2  C   UNL     1      22.929   4.299  51.007  1.00  0.00    +0.139 C 
ATOM      3  C   UNL     1      23.363   3.187  51.991  1.00  0.00    +0.138 C 
ATOM      4  N   UNL     1      22.486   1.994  51.850  1.00  0.00    -0.365 N 
ATOM      5  C   UNL     1      22.533   1.476  50.456  1.00  0.00    +0.138 C 
ATOM      6  C   UNL     1      22.086   2.568  49.458  1.00  0.00    +0.139 C 
ENDROOT
BRANCH   1   7
ATOM      7  C   UNL     1      22.823   4.727  48.596  1.00  0.00    +0.108 A 
ATOM      8  C   UNL     1      22.231   5.505  46.553  1.00  0.00    +0.192 A 
ATOM      9  C   UNL     1      22.873   6.528  47.221  1.00  0.00    +0.070 A 
ATOM     10  N   UNL     1      22.198   4.433  47.408  1.00  0.00    -0.313 N 
ATOM     11  C   UNL     1      23.228   6.045  48.506  1.00  0.00    +0.050 A 
ATOM     12  H   UNL     1      21.741   3.563  47.192  1.00  0.00    +0.171 HD
BRANCH   8  13
ATOM     13  O   UNL     1      21.676   5.373  45.349  1.00  0.00    -0.482 OA
ATOM     14  C   UNL     1      21.417   4.037  44.934  1.00  0.00    +0.280 C 
ENDBRANCH   8  13
ENDBRANCH   1   7
BRANCH   4  15
ATOM     15  C   UNL     1      22.798   0.991  52.803  1.00  0.00    +0.084 A 
ATOM     16  C   UNL     1      24.097   0.587  53.123  1.00  0.00    +0.045 A 
ATOM     17  C   UNL     1      21.723   0.368  53.463  1.00  0.00    +0.181 A 
ATOM     18  C   UNL     1      24.310  -0.417  54.083  1.00  0.00    +0.065 A 
ATOM     19  C   UNL     1      21.928  -0.628  54.414  1.00  0.00    +0.160 A 
ATOM     20  C   UNL     1      23.224  -1.026  54.729  1.00  0.00    +0.066 A 
BRANCH  17  21
ATOM     21  O   UNL     1      20.456   0.778  53.133  1.00  0.00    -0.503 OA
ATOM     22  H   UNL     1      20.236   1.406  53.852  1.00  0.00    +0.293 HD
ENDBRANCH  17  21
BRANCH  18  23
ATOM     23  C   UNL     1      25.710  -0.802  54.382  1.00  0.00    +0.335 C 
ATOM     24  O   UNL     1      26.478  -1.349  53.612  1.00  0.00    -0.246 OA
BRANCH  23  25
ATOM     25  O   UNL     1      26.083  -0.485  55.634  1.00  0.00    -0.478 OA
ATOM     26  H   UNL     1      26.324  -1.347  56.033  1.00  0.00    +0.297 HD
ENDBRANCH  23  25
ENDBRANCH  18  23
BRANCH  19  27
ATOM     27  O   UNL     1      20.853  -1.204  55.029  1.00  0.00    -0.504 OA
ATOM     28  H   UNL     1      20.045  -0.729  54.782  1.00  0.00    +0.293 HD
ENDBRANCH  19  27
ENDBRANCH   4  15
TORSDOF 7
ENDMDL
MODEL 8
REMARK VINA RESULT:    -6.557      4.045      7.790
REMARK INTER + INTRA:          -9.088
REMARK INTER:                  -8.980
REMARK INTRA:                  -0.108
REMARK UNBOUND:                -0.423
REMARK SMILES COc1ccc(N2CCN(c3cc(C(=O)O)cc(O)c3O)CC2)[nH]1
REMARK SMILES IDX 7 1 8 2 9 3 10 4 22 5 23 6 6 7 3 8 4 9 24 10 5 11 2 13 1 14
REMARK SMILES IDX 11 15 12 16 20 17 13 18 18 19 17 20 21 21 14 23 15 24 16 25
REMARK SMILES IDX 19 27
REMARK H PARENT 24 12 21 22 16 26 19 28
ROOT
ATOM      1  N   UNL     1      25.624   3.816  50.408  1.00  0.00    -0.355 N 
ATOM      2  C   UNL     1      26.538   2.831  51.048  1.00  0.00    +0.139 C 
ATOM      3  C   UNL     1      25.756   1.635  51.642  1.00  0.00    +0.138 C 
ATOM      4  N   UNL     1      24.716   2.113  52.592  1.00  0.00    -0.365 N 
ATOM      5  C   UNL     1      23.772   3.038  51.908  1.00  0.00    +0.138 C 
ATOM      6  C   UNL     1      24.533   4.249  51.322  1.00  0.00    +0.139 C 
ENDROOT
BRANCH   1   7
ATOM      7  C   UNL     1      26.171   4.768  49.591  1.00  0.00    +0.108 A 
ATOM      8  C   UNL     1      27.802   5.724  48.344  1.00  0.00    +0.192 A 
ATOM      9  C   UNL     1      26.672   6.508  48.229  1.00  0.00    +0.070 A 
ATOM     10  N   UNL     1      27.472   4.670  49.158  1.00  0.00    -0.313 N 
ATOM     11  C   UNL     1      25.647   5.899  48.996  1.00  0.00    +0.050 A 
ATOM     12  H   UNL     1      28.101   3.915  49.372  1.00  0.00    +0.171 HD
BRANCH   8  13
ATOM     13  O   UNL     1      29.039   5.782  47.852  1.00  0.00    -0.482 OA
ATOM     14  C   UNL     1      30.029   6.297  48.735  1.00  0.00    +0.280 C 
ENDBRANCH   8  13
ENDBRANCH   1   7
BRANCH   4  15
ATOM     15  C   UNL     1      24.043   1.038  53.226  1.00  0.00    +0.084 A 
ATOM     16  C   UNL     1      22.696   0.724  53.024  1.00  0.00    +0.045 A 
ATOM     17  C   UNL     1      24.788   0.240  54.113  1.00  0.00    +0.181 A 
ATOM     18  C   UNL     1      22.113  -0.363  53.697  1.00  0.00    +0.065 A 
ATOM     19  C   UNL     1      24.216  -0.837  54.784  1.00  0.00    +0.160 A 
ATOM     20  C   UNL     1      22.874  -1.145  54.579  1.00  0.00    +0.066 A 
BRANCH  17  21
ATOM     21  O   UNL     1      26.108   0.565  54.299  1.00  0.00    -0.503 OA
ATOM     22  H   UNL     1      26.571  -0.055  53.700  1.00  0.00    +0.293 HD
ENDBRANCH  17  21
BRANCH  18  23
ATOM     23  C   UNL     1      20.681  -0.647  53.441  1.00  0.00    +0.335 C 
ATOM     24  O   UNL     1      20.008  -0.167  52.547  1.00  0.00    -0.246 OA
BRANCH  23  25
ATOM     25  O   UNL     1      20.156  -1.520  54.319  1.00  0.00    -0.478 OA
ATOM     26  H   UNL     1      19.495  -0.989  54.811  1.00  0.00    +0.297 HD
ENDBRANCH  23  25
ENDBRANCH  18  23
BRANCH  19  27
ATOM     27  O   UNL     1      24.978  -1.583  55.637  1.00  0.00    -0.504 OA
ATOM     28  H   UNL     1      25.054  -1.126  56.488  1.00  0.00    +0.293 HD
ENDBRANCH  19  27
ENDBRANCH   4  15
TORSDOF 7
ENDMDL
MODEL 9
REMARK VINA RESULT:    -6.462      3.417      8.229
REMARK INTER + INTRA:          -8.962
REMARK INTER:                  -8.427
REMARK INTRA:                  -0.536
REMARK UNBOUND:                -0.423
REMARK SMILES COc1ccc(N2CCN(c3cc(C(=O)O)cc(O)c3O)CC2)[nH]1
REMARK SMILES IDX 7 1 8 2 9 3 10 4 22 5 23 6 6 7 3 8 4 9 24 10 5 11 2 13 1 14
REMARK SMILES IDX 11 15 12 16 20 17 13 18 18 19 17 20 21 21 14 23 15 24 16 25
REMARK SMILES IDX 19 27
REMARK H PARENT 24 12 21 22 16 26 19 28
ROOT
ATOM      1  N   UNL     1      26.592   1.593  52.703  1.00  0.00    -0.355 N 
ATOM      2  C   UNL     1      25.699   2.156  53.751  1.00  0.00    +0.139 C 
ATOM      3  C   UNL     1      24.331   2.579  53.162  1.00  0.00    +0.138 C 
ATOM      4  N   UNL     1      24.521   3.531  52.035  1.00  0.00    -0.365 N 
ATOM      5  C   UNL     1      25.357   2.916  50.969  1.00  0.00    +0.138 C 
ATOM      6  C   UNL     1      26.734   2.502  51.534  1.00  0.00    +0.139 C 
ENDROOT
BRANCH   1   7
ATOM      7  C   UNL     1      27.709   0.912  53.106  1.00  0.00    +0.108 A 
ATOM      8  C   UNL     1      28.964  -0.927  53.524  1.00  0.00    +0.192 A 
ATOM      9  C   UNL     1      29.739   0.181  53.799  1.00  0.00    +0.070 A 
ATOM     10  N   UNL     1      27.747  -0.462  53.092  1.00  0.00    -0.313 N 
ATOM     11  C   UNL     1      28.958   1.331  53.520  1.00  0.00    +0.050 A 
ATOM     12  H   UNL     1      27.003  -1.061  52.776  1.00  0.00    +0.171 HD
BRANCH   8  13
ATOM     13  O   UNL     1      29.155  -2.244  53.582  1.00  0.00    -0.482 OA
ATOM     14  C   UNL     1      28.215  -3.035  52.865  1.00  0.00    +0.280 C 
ENDBRANCH   8  13
ENDBRANCH   1   7
BRANCH   4  15
ATOM     15  C   UNL     1      23.285   4.012  51.533  1.00  0.00    +0.084 A 
ATOM     16  C   UNL     1      22.308   3.204  50.943  1.00  0.00    +0.045 A 
ATOM     17  C   UNL     1      23.034   5.392  51.641  1.00  0.00    +0.181 A 
ATOM     18  C   UNL     1      21.111   3.770  50.473  1.00  0.00    +0.065 A 
ATOM     19  C   UNL     1      21.850   5.958  51.177  1.00  0.00    +0.160 A 
ATOM     20  C   UNL     1      20.881   5.149  50.590  1.00  0.00    +0.066 A 
BRANCH  17  21
ATOM     21  O   UNL     1      24.005   6.167  52.223  1.00  0.00    -0.503 OA
ATOM     22  H   UNL     1      23.877   7.036  51.791  1.00  0.00    +0.293 HD
ENDBRANCH  17  21
BRANCH  18  23
ATOM     23  C   UNL     1      20.112   2.863  49.858  1.00  0.00    +0.335 C 
ATOM     24  O   UNL     1      19.186   2.327  50.437  1.00  0.00    -0.246 OA
BRANCH  23  25
ATOM     25  O   UNL     1      20.323   2.668  48.544  1.00  0.00    -0.478 OA
ATOM     26  H   UNL     1      19.763   1.892  48.330  1.00  0.00    +0.297 HD
ENDBRANCH  23  25
ENDBRANCH  18  23
BRANCH  19  27
ATOM     27  O   UNL     1      21.650   7.303  51.303  1.00  0.00    -0.504 OA
ATOM     28  H   UNL     1      22.442   7.714  51.681  1.00  0.00    +0.293 HD
ENDBRANCH  19  27
ENDBRANCH   4  15
TORSDOF 7
ENDMDL
