REMARK SMILES O=[N+]([O-])c1cc(-c2ccc(N3CCOCC3)[nH]2)ccc1O
REMARK SMILES IDX 4 1 5 2 6 3 18 4 19 5 20 6 2 7 1 8 3 9 21 10 7 12 8 13 17 14
REMARK SMILES IDX 9 15 10 16 11 18 12 19 16 20 13 21 15 22 14 23
REMARK H PARENT 21 11 17 17
ROOT
ATOM      1  C   UNL     1       3.994   0.902  -0.554  1.00  0.00    +0.311 A 
ATOM      2  C   UNL     1       2.661   0.700  -0.169  1.00  0.00    +0.100 A 
ATOM      3  C   UNL     1       2.230  -0.585   0.176  1.00  0.00    +0.005 A 
ATOM      4  C   UNL     1       3.155  -1.641   0.132  1.00  0.00    +0.014 A 
ATOM      5  C   UNL     1       4.483  -1.430  -0.263  1.00  0.00    +0.054 A 
ATOM      6  C   UNL     1       4.906  -0.151  -0.614  1.00  0.00    +0.194 A 
ENDROOT
BRANCH   1   7
ATOM      7  N   UNL     1       4.403   2.249  -0.894  1.00  0.00    +0.066 N 
ATOM      8  O   UNL     1       5.314   2.761  -0.229  1.00  0.00    -0.258 OA
ATOM      9  O   UNL     1       3.760   2.816  -1.791  1.00  0.00    -0.258 OA
ENDBRANCH   1   7
BRANCH   6  10
ATOM     10  O   UNL     1       6.186   0.049  -1.035  1.00  0.00    -0.502 OA
ATOM     11  H   UNL     1       6.700  -0.771  -0.939  1.00  0.00    +0.293 HD
ENDBRANCH   6  10
BRANCH   3  12
ATOM     12  C   UNL     1       0.847  -0.833   0.581  1.00  0.00    +0.047 A 
ATOM     13  C   UNL     1       0.322  -1.718   1.506  1.00  0.00    +0.030 A 
ATOM     14  N   UNL     1      -0.233  -0.178   0.023  1.00  0.00    -0.341 N 
ATOM     15  C   UNL     1      -1.087  -1.573   1.504  1.00  0.00    +0.047 A 
ATOM     16  C   UNL     1      -1.414  -0.600   0.584  1.00  0.00    +0.106 A 
ATOM     17  H   UNL     1      -0.171   0.487  -0.731  1.00  0.00    +0.168 HD
BRANCH  16  18
ATOM     18  N   UNL     1      -2.614  -0.096   0.189  1.00  0.00    -0.354 N 
ATOM     19  C   UNL     1      -3.871  -0.687   0.677  1.00  0.00    +0.146 C 
ATOM     20  C   UNL     1      -2.756   1.186  -0.521  1.00  0.00    +0.146 C 
ATOM     21  C   UNL     1      -5.031  -0.293  -0.252  1.00  0.00    +0.181 C 
ATOM     22  C   UNL     1      -4.058   1.891  -0.105  1.00  0.00    +0.181 C 
ATOM     23  O   UNL     1      -5.242   1.123  -0.358  1.00  0.00    -0.378 OA
ENDBRANCH  16  18
ENDBRANCH   3  12
TORSDOF 4
