REMARK SMILES C[N+](C)(C)C[C@@H](O)COc1ccc2c(c1)CCC2
REMARK SMILES IDX 6 1 5 2 2 3 1 4 3 5 4 6 7 7 8 9 9 10 10 11 11 12 15 13 12 14
REMARK SMILES IDX 14 15 13 16 16 17 18 18 17 19
REMARK H PARENT 7 8
ROOT
ATOM      1  C   UNL     1      -1.864   0.126  -0.454  1.00  0.00    +0.206 C 
ENDROOT
BRANCH   1   2
ATOM      2  C   UNL     1      -2.816  -0.077   0.741  1.00  0.00    +0.299 C 
BRANCH   2   3
ATOM      3  N   UNL     1      -4.318  -0.239   0.368  1.00  0.00    -0.329 N 
ATOM      4  C   UNL     1      -4.839   0.980  -0.395  1.00  0.00    +0.334 C 
ATOM      5  C   UNL     1      -4.554  -1.490  -0.463  1.00  0.00    +0.334 C 
ATOM      6  C   UNL     1      -5.111  -0.359   1.670  1.00  0.00    +0.334 C 
ENDBRANCH   2   3
ENDBRANCH   1   2
BRANCH   1   7
ATOM      7  O   UNL     1      -2.130   1.386  -1.086  1.00  0.00    -0.384 OA
ATOM      8  H   UNL     1      -1.373   1.559  -1.687  1.00  0.00    +0.211 HD
ENDBRANCH   1   7
BRANCH   1   9
ATOM      9  C   UNL     1      -0.403   0.115   0.021  1.00  0.00    +0.267 C 
BRANCH   9  10
ATOM     10  O   UNL     1       0.407   0.226  -1.151  1.00  0.00    -0.491 OA
BRANCH  10  11
ATOM     11  C   UNL     1       1.764   0.191  -0.974  1.00  0.00    +0.119 A 
ATOM     12  C   UNL     1       2.504   0.215  -2.171  1.00  0.00    +0.047 A 
ATOM     13  C   UNL     1       2.427   0.147   0.256  1.00  0.00    +0.050 A 
ATOM     14  C   UNL     1       3.901   0.192  -2.159  1.00  0.00    +0.008 A 
ATOM     15  C   UNL     1       3.814   0.111   0.257  1.00  0.00    -0.041 A 
ATOM     16  C   UNL     1       4.543   0.133  -0.936  1.00  0.00    -0.045 A 
ATOM     17  C   UNL     1       4.736   0.102   1.438  1.00  0.00    +0.036 C 
ATOM     18  C   UNL     1       6.015   0.137  -0.666  1.00  0.00    +0.036 C 
ATOM     19  C   UNL     1       6.051  -0.352   0.789  1.00  0.00    +0.010 C 
ENDBRANCH  10  11
ENDBRANCH   9  10
ENDBRANCH   1   9
TORSDOF 6
