REMARK SMILES C[N+](C)(C)C[C@@H](O)COc1ccc(C#N)cc1F
REMARK SMILES IDX 6 1 5 2 2 3 1 4 3 5 4 6 7 7 8 9 9 10 10 11 11 12 17 13 12 14
REMARK SMILES IDX 16 15 13 16 14 17 15 18 18 19
REMARK H PARENT 7 8
ROOT
ATOM      1  C   UNL     1      -0.936   1.290   0.819  1.00  0.00    +0.206 C 
ENDROOT
BRANCH   1   2
ATOM      2  C   UNL     1      -2.192   1.395  -0.081  1.00  0.00    +0.299 C 
BRANCH   2   3
ATOM      3  N   UNL     1      -2.968   0.095  -0.443  1.00  0.00    -0.329 N 
ATOM      4  C   UNL     1      -3.283  -0.750   0.794  1.00  0.00    +0.334 C 
ATOM      5  C   UNL     1      -2.247  -0.761  -1.475  1.00  0.00    +0.334 C 
ATOM      6  C   UNL     1      -4.311   0.534  -1.054  1.00  0.00    +0.334 C 
ENDBRANCH   2   3
ENDBRANCH   1   2
BRANCH   1   7
ATOM      7  O   UNL     1      -1.246   0.654   2.066  1.00  0.00    -0.384 OA
ATOM      8  H   UNL     1      -0.447   0.743   2.628  1.00  0.00    +0.211 HD
ENDBRANCH   1   7
BRANCH   1   9
ATOM      9  C   UNL     1       0.272   0.613   0.164  1.00  0.00    +0.267 C 
BRANCH   9  10
ATOM     10  O   UNL     1       1.430   0.947   0.952  1.00  0.00    -0.488 OA
BRANCH  10  11
ATOM     11  C   UNL     1       2.577   0.295   0.583  1.00  0.00    +0.155 A 
ATOM     12  C   UNL     1       3.372  -0.181   1.631  1.00  0.00    +0.051 A 
ATOM     13  C   UNL     1       3.013   0.127  -0.734  1.00  0.00    +0.166 A 
ATOM     14  C   UNL     1       4.569  -0.858   1.358  1.00  0.00    +0.023 A 
ATOM     15  C   UNL     1       4.208  -0.534  -1.016  1.00  0.00    +0.062 A 
ATOM     16  C   UNL     1       4.983  -1.045   0.031  1.00  0.00    +0.055 A 
ATOM     17  C   UNL     1       6.180  -1.773  -0.267  1.00  0.00    +0.099 C 
ATOM     18  N   UNL     1       7.131  -2.389  -0.523  1.00  0.00    -0.192 NA
ATOM     19  F   UNL     1       2.317   0.630  -1.766  1.00  0.00    -0.203 F 
ENDBRANCH  10  11
ENDBRANCH   9  10
ENDBRANCH   1   9
TORSDOF 6
