REMARK SMILES Cc1cccc(C=C2C(=O)N(C)c3ncnc(-c4ccccn4)c32)c1
REMARK SMILES IDX 7 1 8 2 9 3 10 4 11 5 12 6 13 7 14 8 15 9 16 10 17 11 24 12
REMARK SMILES IDX 6 13 2 14 3 15 25 16 4 17 5 18 1 19 18 20 19 21 23 22 20 23
REMARK SMILES IDX 22 24 21 25
REMARK H PARENT
ROOT
ATOM      1  C   UNL     1       0.425  -0.340  -0.278  1.00  0.00    +0.022 C 
ATOM      2  C   UNL     1      -0.287   0.793  -0.162  1.00  0.00    +0.054 C 
ATOM      3  C   UNL     1       0.271   2.194  -0.237  1.00  0.00    +0.260 C 
ATOM      4  O   UNL     1       1.436   2.536  -0.297  1.00  0.00    -0.269 OA
ATOM      5  N   UNL     1      -0.846   3.013  -0.240  1.00  0.00    -0.295 N 
ATOM      6  C   UNL     1      -0.830   4.447  -0.320  1.00  0.00    +0.155 C 
ATOM      7  C   UNL     1      -2.029   2.276  -0.144  1.00  0.00    +0.147 A 
ATOM      8  N   UNL     1      -3.246   2.833  -0.139  1.00  0.00    -0.218 NA
ATOM      9  C   UNL     1      -4.241   1.949  -0.036  1.00  0.00    +0.225 A 
ATOM     10  N   UNL     1      -4.108   0.616   0.074  1.00  0.00    -0.234 NA
ATOM     11  C   UNL     1      -2.843   0.101   0.100  1.00  0.00    +0.102 A 
ATOM     12  C   UNL     1      -1.748   0.921  -0.054  1.00  0.00    +0.058 A 
ENDROOT
BRANCH   1  13
ATOM     13  C   UNL     1       1.880  -0.453  -0.417  1.00  0.00    -0.025 A 
ATOM     14  C   UNL     1       4.124  -0.271   0.511  1.00  0.00    -0.051 A 
ATOM     15  C   UNL     1       4.649  -0.755  -0.693  1.00  0.00    +0.003 A 
ATOM     16  C   UNL     1       2.736  -0.116   0.638  1.00  0.00    +0.011 A 
ATOM     17  C   UNL     1       3.800  -1.102  -1.744  1.00  0.00    +0.001 A 
ATOM     18  C   UNL     1       2.419  -0.957  -1.605  1.00  0.00    +0.008 A 
ATOM     19  C   UNL     1       5.036   0.145   1.627  1.00  0.00    +0.044 C 
ENDBRANCH   1  13
BRANCH  11  20
ATOM     20  C   UNL     1      -2.784  -1.350   0.337  1.00  0.00    +0.089 A 
ATOM     21  C   UNL     1      -3.619  -2.238  -0.343  1.00  0.00    +0.031 A 
ATOM     22  N   UNL     1      -1.914  -1.776   1.290  1.00  0.00    -0.255 NA
ATOM     23  C   UNL     1      -3.547  -3.599  -0.054  1.00  0.00    +0.004 A 
ATOM     24  C   UNL     1      -1.869  -3.101   1.554  1.00  0.00    +0.112 A 
ATOM     25  C   UNL     1      -2.654  -4.042   0.912  1.00  0.00    +0.020 A 
ENDBRANCH  11  20
TORSDOF 2
