MODEL 1
REMARK VINA RESULT:    -9.535      0.000      0.000
REMARK INTER + INTRA:         -12.043
REMARK INTER:                 -12.044
REMARK INTRA:                   0.001
REMARK UNBOUND:                 0.001
REMARK SMILES Cc1cccc(N(C)c2ccc(-c3cc(O)ccc3[N+](=O)[O-])[nH]2)c1
REMARK SMILES IDX 9 1 10 2 11 3 12 4 23 5 7 7 8 8 6 9 2 10 3 11 24 12 4 13
REMARK SMILES IDX 5 14 1 15 13 16 14 17 19 18 15 19 18 20 17 21 20 22 21 23
REMARK SMILES IDX 22 24 16 25
REMARK H PARENT 23 6 16 26
ROOT
ATOM      1  C   UNL     1      24.139   1.325  52.480  1.00  0.00    +0.110 A 
ATOM      2  C   UNL     1      24.590   2.363  53.269  1.00  0.00    +0.047 A 
ATOM      3  C   UNL     1      25.906   2.049  53.692  1.00  0.00    +0.031 A 
ATOM      4  C   UNL     1      26.257   0.833  53.133  1.00  0.00    +0.054 A 
ATOM      5  N   UNL     1      25.174   0.425  52.384  1.00  0.00    -0.341 N 
ATOM      6  H   UNL     1      25.129  -0.414  51.824  1.00  0.00    +0.168 HD
ENDROOT
BRANCH   1   7
ATOM      7  N   UNL     1      22.975   1.105  51.800  1.00  0.00    -0.331 N 
ATOM      8  C   UNL     1      22.553   2.103  50.809  1.00  0.00    +0.152 C 
BRANCH   7   9
ATOM      9  C   UNL     1      21.858   0.440  52.380  1.00  0.00    +0.042 A 
ATOM     10  C   UNL     1      19.483  -0.144  52.293  1.00  0.00    -0.049 A 
ATOM     11  C   UNL     1      19.627  -0.881  53.474  1.00  0.00    +0.003 A 
ATOM     12  C   UNL     1      20.604   0.501  51.751  1.00  0.00    +0.029 A 
ATOM     13  C   UNL     1      20.864  -0.949  54.113  1.00  0.00    +0.002 A 
ATOM     14  C   UNL     1      21.969  -0.293  53.571  1.00  0.00    +0.026 A 
ATOM     15  C   UNL     1      18.164  -0.098  51.581  1.00  0.00    +0.044 C 
ENDBRANCH   7   9
ENDBRANCH   1   7
BRANCH   4  16
ATOM     16  C   UNL     1      27.485   0.044  53.232  1.00  0.00    +0.079 A 
ATOM     17  C   UNL     1      27.424  -1.340  53.007  1.00  0.00    +0.063 A 
ATOM     18  C   UNL     1      28.739   0.584  53.559  1.00  0.00    +0.278 A 
ATOM     19  C   UNL     1      28.570  -2.132  53.114  1.00  0.00    +0.116 A 
ATOM     20  C   UNL     1      29.893  -0.206  53.671  1.00  0.00    +0.090 A 
ATOM     21  C   UNL     1      29.804  -1.579  53.445  1.00  0.00    +0.053 A 
BRANCH  18  22
ATOM     22  N   UNL     1      28.899   2.008  53.760  1.00  0.00    +0.063 N 
ATOM     23  O   UNL     1      29.213   2.379  54.899  1.00  0.00    -0.258 OA
ATOM     24  O   UNL     1      28.770   2.735  52.767  1.00  0.00    -0.258 OA
ENDBRANCH  18  22
BRANCH  19  25
ATOM     25  O   UNL     1      28.433  -3.468  52.884  1.00  0.00    -0.508 OA
ATOM     26  H   UNL     1      29.270  -3.916  53.091  1.00  0.00    +0.293 HD
ENDBRANCH  19  25
ENDBRANCH   4  16
TORSDOF 5
ENDMDL
MODEL 2
REMARK VINA RESULT:    -9.525      2.480      4.517
REMARK INTER + INTRA:         -12.030
REMARK INTER:                 -11.498
REMARK INTRA:                  -0.532
REMARK UNBOUND:                 0.001
REMARK SMILES Cc1cccc(N(C)c2ccc(-c3cc(O)ccc3[N+](=O)[O-])[nH]2)c1
REMARK SMILES IDX 9 1 10 2 11 3 12 4 23 5 7 7 8 8 6 9 2 10 3 11 24 12 4 13
REMARK SMILES IDX 5 14 1 15 13 16 14 17 19 18 15 19 18 20 17 21 20 22 21 23
REMARK SMILES IDX 22 24 16 25
REMARK H PARENT 23 6 16 26
ROOT
ATOM      1  C   UNL     1      24.008   1.641  51.703  1.00  0.00    +0.110 A 
ATOM      2  C   UNL     1      23.420   0.973  52.758  1.00  0.00    +0.047 A 
ATOM      3  C   UNL     1      24.414   0.175  53.377  1.00  0.00    +0.031 A 
ATOM      4  C   UNL     1      25.609   0.386  52.712  1.00  0.00    +0.054 A 
ATOM      5  N   UNL     1      25.339   1.296  51.713  1.00  0.00    -0.341 N 
ATOM      6  H   UNL     1      26.016   1.681  51.069  1.00  0.00    +0.168 HD
ENDROOT
BRANCH   1   7
ATOM      7  N   UNL     1      23.540   2.543  50.791  1.00  0.00    -0.331 N 
ATOM      8  C   UNL     1      22.785   2.035  49.639  1.00  0.00    +0.152 C 
BRANCH   7   9
ATOM      9  C   UNL     1      24.233   3.745  50.473  1.00  0.00    +0.042 A 
ATOM     10  C   UNL     1      26.160   4.851  49.445  1.00  0.00    -0.049 A 
ATOM     11  C   UNL     1      25.625   6.096  49.797  1.00  0.00    +0.003 A 
ATOM     12  C   UNL     1      25.451   3.687  49.778  1.00  0.00    +0.029 A 
ATOM     13  C   UNL     1      24.418   6.172  50.491  1.00  0.00    +0.002 A 
ATOM     14  C   UNL     1      23.730   5.006  50.826  1.00  0.00    +0.026 A 
ATOM     15  C   UNL     1      27.439   4.764  48.667  1.00  0.00    +0.044 C 
ENDBRANCH   7   9
ENDBRANCH   1   7
BRANCH   4  16
ATOM     16  C   UNL     1      26.944  -0.172  52.926  1.00  0.00    +0.079 A 
ATOM     17  C   UNL     1      27.113  -1.565  52.891  1.00  0.00    +0.063 A 
ATOM     18  C   UNL     1      28.085   0.603  53.187  1.00  0.00    +0.278 A 
ATOM     19  C   UNL     1      28.367  -2.138  53.113  1.00  0.00    +0.116 A 
ATOM     20  C   UNL     1      29.348   0.034  53.413  1.00  0.00    +0.090 A 
ATOM     21  C   UNL     1      29.486  -1.353  53.375  1.00  0.00    +0.053 A 
BRANCH  18  22
ATOM     22  N   UNL     1      28.008   2.048  53.195  1.00  0.00    +0.063 N 
ATOM     23  O   UNL     1      28.141   2.609  54.291  1.00  0.00    -0.258 OA
ATOM     24  O   UNL     1      27.879   2.612  52.100  1.00  0.00    -0.258 OA
ENDBRANCH  18  22
BRANCH  19  25
ATOM     25  O   UNL     1      28.454  -3.498  53.064  1.00  0.00    -0.508 OA
ATOM     26  H   UNL     1      27.847  -3.880  53.721  1.00  0.00    +0.293 HD
ENDBRANCH  19  25
ENDBRANCH   4  16
TORSDOF 5
ENDMDL
MODEL 3
REMARK VINA RESULT:    -9.505      1.146      1.902
REMARK INTER + INTRA:         -12.004
REMARK INTER:                 -12.078
REMARK INTRA:                   0.074
REMARK UNBOUND:                 0.001
REMARK SMILES Cc1cccc(N(C)c2ccc(-c3cc(O)ccc3[N+](=O)[O-])[nH]2)c1
REMARK SMILES IDX 9 1 10 2 11 3 12 4 23 5 7 7 8 8 6 9 2 10 3 11 24 12 4 13
REMARK SMILES IDX 5 14 1 15 13 16 14 17 19 18 15 19 18 20 17 21 20 22 21 23
REMARK SMILES IDX 22 24 16 25
REMARK H PARENT 23 6 16 26
ROOT
ATOM      1  C   UNL     1      23.443   0.350  53.148  1.00  0.00    +0.110 A 
ATOM      2  C   UNL     1      23.775   1.199  52.112  1.00  0.00    +0.047 A 
ATOM      3  C   UNL     1      25.175   1.112  51.910  1.00  0.00    +0.031 A 
ATOM      4  C   UNL     1      25.682   0.188  52.806  1.00  0.00    +0.054 A 
ATOM      5  N   UNL     1      24.606  -0.276  53.532  1.00  0.00    -0.341 N 
ATOM      6  H   UNL     1      24.643  -0.988  54.248  1.00  0.00    +0.168 HD
ENDROOT
BRANCH   1   7
ATOM      7  N   UNL     1      22.259   0.021  53.744  1.00  0.00    -0.331 N 
ATOM      8  C   UNL     1      22.286  -0.942  54.853  1.00  0.00    +0.152 C 
BRANCH   7   9
ATOM      9  C   UNL     1      21.029  -0.037  53.031  1.00  0.00    +0.042 A 
ATOM     10  C   UNL     1      18.734  -0.871  52.865  1.00  0.00    -0.049 A 
ATOM     11  C   UNL     1      18.568  -0.160  51.672  1.00  0.00    +0.003 A 
ATOM     12  C   UNL     1      19.961  -0.794  53.540  1.00  0.00    +0.029 A 
ATOM     13  C   UNL     1      19.619   0.593  51.151  1.00  0.00    +0.002 A 
ATOM     14  C   UNL     1      20.839   0.652  51.824  1.00  0.00    +0.026 A 
ATOM     15  C   UNL     1      17.595  -1.654  53.450  1.00  0.00    +0.044 C 
ENDBRANCH   7   9
ENDBRANCH   1   7
BRANCH   4  16
ATOM     16  C   UNL     1      27.046  -0.289  53.032  1.00  0.00    +0.079 A 
ATOM     17  C   UNL     1      27.293  -1.671  53.031  1.00  0.00    +0.063 A 
ATOM     18  C   UNL     1      28.141   0.555  53.274  1.00  0.00    +0.278 A 
ATOM     19  C   UNL     1      28.577  -2.167  53.266  1.00  0.00    +0.116 A 
ATOM     20  C   UNL     1      29.434   0.063  53.513  1.00  0.00    +0.090 A 
ATOM     21  C   UNL     1      29.650  -1.314  53.508  1.00  0.00    +0.053 A 
BRANCH  18  22
ATOM     22  N   UNL     1      27.984   1.993  53.246  1.00  0.00    +0.063 N 
ATOM     23  O   UNL     1      27.899   2.567  54.341  1.00  0.00    -0.258 OA
ATOM     24  O   UNL     1      28.008   2.542  52.137  1.00  0.00    -0.258 OA
ENDBRANCH  18  22
BRANCH  19  25
ATOM     25  O   UNL     1      28.740  -3.521  53.251  1.00  0.00    -0.508 OA
ATOM     26  H   UNL     1      29.179  -3.781  52.424  1.00  0.00    +0.293 HD
ENDBRANCH  19  25
ENDBRANCH   4  16
TORSDOF 5
ENDMDL
MODEL 4
REMARK VINA RESULT:    -9.450      2.145      2.992
REMARK INTER + INTRA:         -11.934
REMARK INTER:                 -11.271
REMARK INTRA:                  -0.664
REMARK UNBOUND:                 0.001
REMARK SMILES Cc1cccc(N(C)c2ccc(-c3cc(O)ccc3[N+](=O)[O-])[nH]2)c1
REMARK SMILES IDX 9 1 10 2 11 3 12 4 23 5 7 7 8 8 6 9 2 10 3 11 24 12 4 13
REMARK SMILES IDX 5 14 1 15 13 16 14 17 19 18 15 19 18 20 17 21 20 22 21 23
REMARK SMILES IDX 22 24 16 25
REMARK H PARENT 23 6 16 26
ROOT
ATOM      1  C   UNL     1      24.937   2.327  51.887  1.00  0.00    +0.110 A 
ATOM      2  C   UNL     1      24.509   2.230  53.195  1.00  0.00    +0.047 A 
ATOM      3  C   UNL     1      25.412   1.384  53.887  1.00  0.00    +0.031 A 
ATOM      4  C   UNL     1      26.401   0.995  53.001  1.00  0.00    +0.054 A 
ATOM      5  N   UNL     1      26.100   1.599  51.798  1.00  0.00    -0.341 N 
ATOM      6  H   UNL     1      26.653   1.538  50.955  1.00  0.00    +0.168 HD
ENDROOT
BRANCH   1   7
ATOM      7  N   UNL     1      24.473   3.012  50.800  1.00  0.00    -0.331 N 
ATOM      8  C   UNL     1      24.521   4.479  50.834  1.00  0.00    +0.152 C 
BRANCH   7   9
ATOM      9  C   UNL     1      23.395   2.543  49.998  1.00  0.00    +0.042 A 
ATOM     10  C   UNL     1      22.108   2.680  47.920  1.00  0.00    -0.049 A 
ATOM     11  C   UNL     1      21.294   1.632  48.363  1.00  0.00    +0.003 A 
ATOM     12  C   UNL     1      23.159   3.118  48.739  1.00  0.00    +0.029 A 
ATOM     13  C   UNL     1      21.512   1.051  49.611  1.00  0.00    +0.002 A 
ATOM     14  C   UNL     1      22.552   1.505  50.422  1.00  0.00    +0.026 A 
ATOM     15  C   UNL     1      21.902   3.283  46.562  1.00  0.00    +0.044 C 
ENDBRANCH   7   9
ENDBRANCH   1   7
BRANCH   4  16
ATOM     16  C   UNL     1      27.571   0.136  53.176  1.00  0.00    +0.079 A 
ATOM     17  C   UNL     1      27.452  -1.238  52.914  1.00  0.00    +0.063 A 
ATOM     18  C   UNL     1      28.822   0.596  53.615  1.00  0.00    +0.278 A 
ATOM     19  C   UNL     1      28.539  -2.096  53.091  1.00  0.00    +0.116 A 
ATOM     20  C   UNL     1      29.919  -0.261  53.797  1.00  0.00    +0.090 A 
ATOM     21  C   UNL     1      29.772  -1.622  53.532  1.00  0.00    +0.053 A 
BRANCH  18  22
ATOM     22  N   UNL     1      29.044   2.004  53.863  1.00  0.00    +0.063 N 
ATOM     23  O   UNL     1      29.488   2.312  54.978  1.00  0.00    -0.258 OA
ATOM     24  O   UNL     1      28.833   2.782  52.924  1.00  0.00    -0.258 OA
ENDBRANCH  18  22
BRANCH  19  25
ATOM     25  O   UNL     1      28.347  -3.418  52.818  1.00  0.00    -0.508 OA
ATOM     26  H   UNL     1      27.660  -3.770  53.409  1.00  0.00    +0.293 HD
ENDBRANCH  19  25
ENDBRANCH   4  16
TORSDOF 5
ENDMDL
MODEL 5
REMARK VINA RESULT:    -9.020      1.469      2.111
REMARK INTER + INTRA:         -11.392
REMARK INTER:                 -10.566
REMARK INTRA:                  -0.827
REMARK UNBOUND:                 0.001
REMARK SMILES Cc1cccc(N(C)c2ccc(-c3cc(O)ccc3[N+](=O)[O-])[nH]2)c1
REMARK SMILES IDX 9 1 10 2 11 3 12 4 23 5 7 7 8 8 6 9 2 10 3 11 24 12 4 13
REMARK SMILES IDX 5 14 1 15 13 16 14 17 19 18 15 19 18 20 17 21 20 22 21 23
REMARK SMILES IDX 22 24 16 25
REMARK H PARENT 23 6 16 26
ROOT
ATOM      1  C   UNL     1      23.638   0.986  52.115  1.00  0.00    +0.110 A 
ATOM      2  C   UNL     1      23.246   0.389  53.296  1.00  0.00    +0.047 A 
ATOM      3  C   UNL     1      24.378  -0.257  53.854  1.00  0.00    +0.031 A 
ATOM      4  C   UNL     1      25.458  -0.024  53.023  1.00  0.00    +0.054 A 
ATOM      5  N   UNL     1      24.986   0.751  51.985  1.00  0.00    -0.341 N 
ATOM      6  H   UNL     1      25.542   1.118  51.225  1.00  0.00    +0.168 HD
ENDROOT
BRANCH   1   7
ATOM      7  N   UNL     1      22.982   1.746  51.189  1.00  0.00    -0.331 N 
ATOM      8  C   UNL     1      23.724   2.829  50.532  1.00  0.00    +0.152 C 
BRANCH   7   9
ATOM      9  C   UNL     1      21.594   2.045  51.284  1.00  0.00    +0.042 A 
ATOM     10  C   UNL     1      19.267   1.329  51.025  1.00  0.00    -0.049 A 
ATOM     11  C   UNL     1      18.838   2.581  51.479  1.00  0.00    +0.003 A 
ATOM     12  C   UNL     1      20.643   1.070  50.942  1.00  0.00    +0.029 A 
ATOM     13  C   UNL     1      19.768   3.562  51.819  1.00  0.00    +0.002 A 
ATOM     14  C   UNL     1      21.133   3.297  51.720  1.00  0.00    +0.026 A 
ATOM     15  C   UNL     1      18.273   0.257  50.693  1.00  0.00    +0.044 C 
ENDBRANCH   7   9
ENDBRANCH   1   7
BRANCH   4  16
ATOM     16  C   UNL     1      26.855  -0.448  53.114  1.00  0.00    +0.079 A 
ATOM     17  C   UNL     1      27.151  -1.820  53.114  1.00  0.00    +0.063 A 
ATOM     18  C   UNL     1      27.938   0.439  53.221  1.00  0.00    +0.278 A 
ATOM     19  C   UNL     1      28.470  -2.266  53.222  1.00  0.00    +0.116 A 
ATOM     20  C   UNL     1      29.266  -0.002  53.332  1.00  0.00    +0.090 A 
ATOM     21  C   UNL     1      29.530  -1.371  53.332  1.00  0.00    +0.053 A 
BRANCH  18  22
ATOM     22  N   UNL     1      27.726   1.870  53.182  1.00  0.00    +0.063 N 
ATOM     23  O   UNL     1      27.633   2.390  52.062  1.00  0.00    -0.258 OA
ATOM     24  O   UNL     1      27.591   2.450  54.267  1.00  0.00    -0.258 OA
ENDBRANCH  18  22
BRANCH  19  25
ATOM     25  O   UNL     1      28.680  -3.613  53.217  1.00  0.00    -0.508 OA
ATOM     26  H   UNL     1      29.634  -3.788  53.153  1.00  0.00    +0.293 HD
ENDBRANCH  19  25
ENDBRANCH   4  16
TORSDOF 5
ENDMDL
MODEL 6
REMARK VINA RESULT:    -8.775      1.755      3.571
REMARK INTER + INTRA:         -11.082
REMARK INTER:                 -10.289
REMARK INTRA:                  -0.793
REMARK UNBOUND:                 0.001
REMARK SMILES Cc1cccc(N(C)c2ccc(-c3cc(O)ccc3[N+](=O)[O-])[nH]2)c1
REMARK SMILES IDX 9 1 10 2 11 3 12 4 23 5 7 7 8 8 6 9 2 10 3 11 24 12 4 13
REMARK SMILES IDX 5 14 1 15 13 16 14 17 19 18 15 19 18 20 17 21 20 22 21 23
REMARK SMILES IDX 22 24 16 25
REMARK H PARENT 23 6 16 26
ROOT
ATOM      1  C   UNL     1      22.869   0.748  52.643  1.00  0.00    +0.110 A 
ATOM      2  C   UNL     1      22.571  -0.268  53.528  1.00  0.00    +0.047 A 
ATOM      3  C   UNL     1      23.781  -0.933  53.850  1.00  0.00    +0.031 A 
ATOM      4  C   UNL     1      24.812  -0.296  53.181  1.00  0.00    +0.054 A 
ATOM      5  N   UNL     1      24.233   0.734  52.472  1.00  0.00    -0.341 N 
ATOM      6  H   UNL     1      24.728   1.408  51.904  1.00  0.00    +0.168 HD
ENDROOT
BRANCH   1   7
ATOM      7  N   UNL     1      22.111   1.704  52.029  1.00  0.00    -0.331 N 
ATOM      8  C   UNL     1      20.726   1.887  52.482  1.00  0.00    +0.152 C 
BRANCH   7   9
ATOM      9  C   UNL     1      22.259   2.037  50.653  1.00  0.00    +0.042 A 
ATOM     10  C   UNL     1      23.035   3.605  48.942  1.00  0.00    -0.049 A 
ATOM     11  C   UNL     1      22.598   2.725  47.946  1.00  0.00    +0.003 A 
ATOM     12  C   UNL     1      22.871   3.246  50.288  1.00  0.00    +0.029 A 
ATOM     13  C   UNL     1      21.986   1.522  48.290  1.00  0.00    +0.002 A 
ATOM     14  C   UNL     1      21.816   1.182  49.632  1.00  0.00    +0.026 A 
ATOM     15  C   UNL     1      23.728   4.885  48.577  1.00  0.00    +0.044 C 
ENDBRANCH   7   9
ENDBRANCH   1   7
BRANCH   4  16
ATOM     16  C   UNL     1      26.251  -0.559  53.152  1.00  0.00    +0.079 A 
ATOM     17  C   UNL     1      26.698  -1.885  53.045  1.00  0.00    +0.063 A 
ATOM     18  C   UNL     1      27.231   0.440  53.243  1.00  0.00    +0.278 A 
ATOM     19  C   UNL     1      28.063  -2.180  53.036  1.00  0.00    +0.116 A 
ATOM     20  C   UNL     1      28.605   0.151  53.237  1.00  0.00    +0.090 A 
ATOM     21  C   UNL     1      29.021  -1.175  53.132  1.00  0.00    +0.053 A 
BRANCH  18  22
ATOM     22  N   UNL     1      26.857   1.837  53.309  1.00  0.00    +0.063 N 
ATOM     23  O   UNL     1      26.864   2.468  52.244  1.00  0.00    -0.258 OA
ATOM     24  O   UNL     1      26.502   2.274  54.411  1.00  0.00    -0.258 OA
ENDBRANCH  18  22
BRANCH  19  25
ATOM     25  O   UNL     1      28.422  -3.491  52.931  1.00  0.00    -0.508 OA
ATOM     26  H   UNL     1      28.707  -3.672  52.020  1.00  0.00    +0.293 HD
ENDBRANCH  19  25
ENDBRANCH   4  16
TORSDOF 5
ENDMDL
MODEL 7
REMARK VINA RESULT:    -8.519      3.359      7.734
REMARK INTER + INTRA:         -10.759
REMARK INTER:                 -10.410
REMARK INTRA:                  -0.349
REMARK UNBOUND:                 0.001
REMARK SMILES Cc1cccc(N(C)c2ccc(-c3cc(O)ccc3[N+](=O)[O-])[nH]2)c1
REMARK SMILES IDX 9 1 10 2 11 3 12 4 23 5 7 7 8 8 6 9 2 10 3 11 24 12 4 13
REMARK SMILES IDX 5 14 1 15 13 16 14 17 19 18 15 19 18 20 17 21 20 22 21 23
REMARK SMILES IDX 22 24 16 25
REMARK H PARENT 23 6 16 26
ROOT
ATOM      1  C   UNL     1      24.347   0.426  53.225  1.00  0.00    +0.110 A 
ATOM      2  C   UNL     1      24.170  -0.551  54.183  1.00  0.00    +0.047 A 
ATOM      3  C   UNL     1      22.799  -0.912  54.189  1.00  0.00    +0.031 A 
ATOM      4  C   UNL     1      22.157  -0.171  53.213  1.00  0.00    +0.054 A 
ATOM      5  N   UNL     1      23.124   0.618  52.628  1.00  0.00    -0.341 N 
ATOM      6  H   UNL     1      22.977   1.253  51.855  1.00  0.00    +0.168 HD
ENDROOT
BRANCH   1   7
ATOM      7  N   UNL     1      25.442   1.111  52.780  1.00  0.00    -0.331 N 
ATOM      8  C   UNL     1      25.377   1.733  51.452  1.00  0.00    +0.152 C 
BRANCH   7   9
ATOM      9  C   UNL     1      26.773   0.737  53.117  1.00  0.00    +0.042 A 
ATOM     10  C   UNL     1      28.496  -0.995  53.264  1.00  0.00    -0.049 A 
ATOM     11  C   UNL     1      29.403  -0.044  53.744  1.00  0.00    +0.003 A 
ATOM     12  C   UNL     1      27.191  -0.592  52.945  1.00  0.00    +0.029 A 
ATOM     13  C   UNL     1      29.004   1.279  53.924  1.00  0.00    +0.002 A 
ATOM     14  C   UNL     1      27.700   1.665  53.614  1.00  0.00    +0.026 A 
ATOM     15  C   UNL     1      28.929  -2.413  53.034  1.00  0.00    +0.044 C 
ENDBRANCH   7   9
ENDBRANCH   1   7
BRANCH   4  16
ATOM     16  C   UNL     1      20.757  -0.141  52.789  1.00  0.00    +0.079 A 
ATOM     17  C   UNL     1      19.793  -0.784  53.581  1.00  0.00    +0.063 A 
ATOM     18  C   UNL     1      20.307   0.482  51.615  1.00  0.00    +0.278 A 
ATOM     19  C   UNL     1      18.449  -0.798  53.200  1.00  0.00    +0.116 A 
ATOM     20  C   UNL     1      18.958   0.470  51.225  1.00  0.00    +0.090 A 
ATOM     21  C   UNL     1      18.022  -0.178  52.029  1.00  0.00    +0.053 A 
BRANCH  18  22
ATOM     22  N   UNL     1      21.227   1.207  50.766  1.00  0.00    +0.063 N 
ATOM     23  O   UNL     1      21.690   0.596  49.793  1.00  0.00    -0.258 OA
ATOM     24  O   UNL     1      21.430   2.396  51.041  1.00  0.00    -0.258 OA
ENDBRANCH  18  22
BRANCH  19  25
ATOM     25  O   UNL     1      17.571  -1.443  54.018  1.00  0.00    -0.508 OA
ATOM     26  H   UNL     1      17.092  -2.117  53.507  1.00  0.00    +0.293 HD
ENDBRANCH  19  25
ENDBRANCH   4  16
TORSDOF 5
ENDMDL
MODEL 8
REMARK VINA RESULT:    -8.414      3.389      7.703
REMARK INTER + INTRA:         -10.627
REMARK INTER:                 -10.084
REMARK INTRA:                  -0.543
REMARK UNBOUND:                 0.001
REMARK SMILES Cc1cccc(N(C)c2ccc(-c3cc(O)ccc3[N+](=O)[O-])[nH]2)c1
REMARK SMILES IDX 9 1 10 2 11 3 12 4 23 5 7 7 8 8 6 9 2 10 3 11 24 12 4 13
REMARK SMILES IDX 5 14 1 15 13 16 14 17 19 18 15 19 18 20 17 21 20 22 21 23
REMARK SMILES IDX 22 24 16 25
REMARK H PARENT 23 6 16 26
ROOT
ATOM      1  C   UNL     1      24.502   0.925  52.685  1.00  0.00    +0.110 A 
ATOM      2  C   UNL     1      24.358   1.672  51.533  1.00  0.00    +0.047 A 
ATOM      3  C   UNL     1      23.015   1.546  51.098  1.00  0.00    +0.031 A 
ATOM      4  C   UNL     1      22.343   0.746  52.005  1.00  0.00    +0.054 A 
ATOM      5  N   UNL     1      23.264   0.400  52.970  1.00  0.00    -0.341 N 
ATOM      6  H   UNL     1      23.073  -0.156  53.792  1.00  0.00    +0.168 HD
ENDROOT
BRANCH   1   7
ATOM      7  N   UNL     1      25.552   0.703  53.530  1.00  0.00    -0.331 N 
ATOM      8  C   UNL     1      26.113   1.851  54.254  1.00  0.00    +0.152 C 
BRANCH   7   9
ATOM      9  C   UNL     1      26.538  -0.294  53.287  1.00  0.00    +0.042 A 
ATOM     10  C   UNL     1      28.872  -1.017  53.422  1.00  0.00    -0.049 A 
ATOM     11  C   UNL     1      28.518  -2.245  52.851  1.00  0.00    +0.003 A 
ATOM     12  C   UNL     1      27.875  -0.057  53.645  1.00  0.00    +0.029 A 
ATOM     13  C   UNL     1      27.197  -2.496  52.487  1.00  0.00    +0.002 A 
ATOM     14  C   UNL     1      26.216  -1.528  52.702  1.00  0.00    +0.026 A 
ATOM     15  C   UNL     1      30.286  -0.756  53.850  1.00  0.00    +0.044 C 
ENDBRANCH   7   9
ENDBRANCH   1   7
BRANCH   4  16
ATOM     16  C   UNL     1      20.952   0.294  52.048  1.00  0.00    +0.079 A 
ATOM     17  C   UNL     1      20.117   0.556  50.951  1.00  0.00    +0.063 A 
ATOM     18  C   UNL     1      20.381  -0.381  53.139  1.00  0.00    +0.278 A 
ATOM     19  C   UNL     1      18.778   0.161  50.962  1.00  0.00    +0.116 A 
ATOM     20  C   UNL     1      19.035  -0.779  53.158  1.00  0.00    +0.090 A 
ATOM     21  C   UNL     1      18.228  -0.503  52.055  1.00  0.00    +0.053 A 
BRANCH  18  22
ATOM     22  N   UNL     1      21.183  -0.732  54.291  1.00  0.00    +0.063 N 
ATOM     23  O   UNL     1      21.767  -1.823  54.253  1.00  0.00    -0.258 OA
ATOM     24  O   UNL     1      21.272   0.110  55.193  1.00  0.00    -0.258 OA
ENDBRANCH  18  22
BRANCH  19  25
ATOM     25  O   UNL     1      18.028   0.452  49.861  1.00  0.00    -0.508 OA
ATOM     26  H   UNL     1      17.260   0.983  50.129  1.00  0.00    +0.293 HD
ENDBRANCH  19  25
ENDBRANCH   4  16
TORSDOF 5
ENDMDL
MODEL 9
REMARK VINA RESULT:    -8.366      3.931      6.516
REMARK INTER + INTRA:         -10.565
REMARK INTER:                  -9.756
REMARK INTRA:                  -0.809
REMARK UNBOUND:                 0.001
REMARK SMILES Cc1cccc(N(C)c2ccc(-c3cc(O)ccc3[N+](=O)[O-])[nH]2)c1
REMARK SMILES IDX 9 1 10 2 11 3 12 4 23 5 7 7 8 8 6 9 2 10 3 11 24 12 4 13
REMARK SMILES IDX 5 14 1 15 13 16 14 17 19 18 15 19 18 20 17 21 20 22 21 23
REMARK SMILES IDX 22 24 16 25
REMARK H PARENT 23 6 16 26
ROOT
ATOM      1  C   UNL     1      23.372   3.348  50.666  1.00  0.00    +0.110 A 
ATOM      2  C   UNL     1      22.593   2.520  49.884  1.00  0.00    +0.047 A 
ATOM      3  C   UNL     1      22.400   1.307  50.592  1.00  0.00    +0.031 A 
ATOM      4  C   UNL     1      23.039   1.417  51.814  1.00  0.00    +0.054 A 
ATOM      5  N   UNL     1      23.604   2.674  51.842  1.00  0.00    -0.341 N 
ATOM      6  H   UNL     1      24.114   3.072  52.618  1.00  0.00    +0.168 HD
ENDROOT
BRANCH   1   7
ATOM      7  N   UNL     1      23.843   4.619  50.501  1.00  0.00    -0.331 N 
ATOM      8  C   UNL     1      22.866   5.706  50.350  1.00  0.00    +0.152 C 
BRANCH   7   9
ATOM      9  C   UNL     1      25.055   4.908  49.813  1.00  0.00    +0.042 A 
ATOM     10  C   UNL     1      26.445   6.504  48.584  1.00  0.00    -0.049 A 
ATOM     11  C   UNL     1      27.447   5.533  48.469  1.00  0.00    +0.003 A 
ATOM     12  C   UNL     1      25.262   6.184  49.265  1.00  0.00    +0.029 A 
ATOM     13  C   UNL     1      27.257   4.261  49.004  1.00  0.00    +0.002 A 
ATOM     14  C   UNL     1      26.071   3.951  49.669  1.00  0.00    +0.026 A 
ATOM     15  C   UNL     1      26.658   7.886  48.043  1.00  0.00    +0.044 C 
ENDBRANCH   7   9
ENDBRANCH   1   7
BRANCH   4  16
ATOM     16  C   UNL     1      23.160   0.476  52.927  1.00  0.00    +0.079 A 
ATOM     17  C   UNL     1      21.997  -0.098  53.463  1.00  0.00    +0.063 A 
ATOM     18  C   UNL     1      24.381   0.116  53.519  1.00  0.00    +0.278 A 
ATOM     19  C   UNL     1      22.068  -0.983  54.541  1.00  0.00    +0.116 A 
ATOM     20  C   UNL     1      24.460  -0.771  54.603  1.00  0.00    +0.090 A 
ATOM     21  C   UNL     1      23.288  -1.325  55.117  1.00  0.00    +0.053 A 
BRANCH  18  22
ATOM     22  N   UNL     1      25.631   0.625  52.998  1.00  0.00    +0.063 N 
ATOM     23  O   UNL     1      26.145  -0.004  52.064  1.00  0.00    -0.258 OA
ATOM     24  O   UNL     1      26.056   1.681  53.484  1.00  0.00    -0.258 OA
ENDBRANCH  18  22
BRANCH  19  25
ATOM     25  O   UNL     1      20.896  -1.499  55.008  1.00  0.00    -0.508 OA
ATOM     26  H   UNL     1      20.155  -1.096  54.525  1.00  0.00    +0.293 HD
ENDBRANCH  19  25
ENDBRANCH   4  16
TORSDOF 5
ENDMDL
