REMARK SMILES Cc1cc(C)c(-c2cc(C)c(-c3ccccc3)[nH]2)[nH]1
REMARK SMILES IDX 1 1 2 2 3 3 4 4 5 5 6 6 19 7 7 9 8 10 18 11 9 12 11 13 10 15
REMARK SMILES IDX 12 16 13 17 17 18 14 19 16 20 15 21
REMARK H PARENT 19 8 18 14
ROOT
ATOM      1  C   UNL     1      -5.649   0.462  -1.132  1.00  0.00    +0.064 C 
ATOM      2  C   UNL     1      -4.358  -0.122  -0.697  1.00  0.00    +0.012 A 
ATOM      3  C   UNL     1      -4.011  -1.417  -0.379  1.00  0.00    +0.026 A 
ATOM      4  C   UNL     1      -2.631  -1.433  -0.021  1.00  0.00    -0.024 A 
ATOM      5  C   UNL     1      -1.878  -2.640   0.415  1.00  0.00    +0.047 C 
ATOM      6  C   UNL     1      -2.169  -0.130  -0.145  1.00  0.00    +0.065 A 
ATOM      7  N   UNL     1      -3.233   0.646  -0.540  1.00  0.00    -0.357 N 
ATOM      8  H   UNL     1      -3.178   1.640  -0.714  1.00  0.00    +0.166 HD
ENDROOT
BRANCH   6   9
ATOM      9  C   UNL     1      -0.873   0.441   0.064  1.00  0.00    +0.063 A 
ATOM     10  C   UNL     1      -0.514   1.723   0.430  1.00  0.00    +0.033 A 
ATOM     11  N   UNL     1       0.292  -0.261  -0.105  1.00  0.00    -0.353 N 
ATOM     12  C   UNL     1       0.908   1.791   0.492  1.00  0.00    -0.025 A 
ATOM     13  C   UNL     1       1.389   0.534   0.148  1.00  0.00    +0.049 A 
ATOM     14  H   UNL     1       0.344  -1.219  -0.416  1.00  0.00    +0.167 HD
ATOM     15  C   UNL     1       1.704   2.989   0.871  1.00  0.00    +0.047 C 
BRANCH  13  16
ATOM     16  C   UNL     1       2.752   0.020   0.024  1.00  0.00    -0.002 A 
ATOM     17  C   UNL     1       3.691   0.684  -0.773  1.00  0.00    +0.010 A 
ATOM     18  C   UNL     1       3.134  -1.148   0.695  1.00  0.00    +0.010 A 
ATOM     19  C   UNL     1       4.991   0.189  -0.898  1.00  0.00    +0.001 A 
ATOM     20  C   UNL     1       4.435  -1.643   0.571  1.00  0.00    +0.001 A 
ATOM     21  C   UNL     1       5.362  -0.974  -0.226  1.00  0.00    +0.000 A 
ENDBRANCH  13  16
ENDBRANCH   6   9
TORSDOF 2
