REMARK SMILES CCN(C)c1ccc(C/N=N/Nc2ccc3ncnc(-c4ccccc4)c3c2)[nH]1
REMARK SMILES IDX 9 1 8 2 5 3 6 4 29 5 7 6 3 8 4 9 2 10 1 11 10 12 11 13 12 14
REMARK SMILES IDX 13 16 14 17 28 18 15 19 27 20 16 21 20 22 17 23 19 24 18 25
REMARK SMILES IDX 21 26 22 27 26 28 23 29 25 30 24 31
REMARK H PARENT 29 7 12 15
ROOT
ATOM      1  C   UNL     1       1.944   2.161  -2.366  1.00  0.00    +0.222 C 
ENDROOT
BRANCH   1   2
ATOM      2  C   UNL     1       3.154   2.374  -1.524  1.00  0.00    +0.040 A 
ATOM      3  C   UNL     1       4.910   1.762  -0.236  1.00  0.00    +0.105 A 
ATOM      4  C   UNL     1       4.889   3.142  -0.309  1.00  0.00    +0.047 A 
ATOM      5  N   UNL     1       3.830   1.316  -0.961  1.00  0.00    -0.344 N 
ATOM      6  C   UNL     1       3.800   3.528  -1.129  1.00  0.00    +0.027 A 
ATOM      7  H   UNL     1       3.549   0.350  -1.035  1.00  0.00    +0.168 HD
BRANCH   3   8
ATOM      8  N   UNL     1       5.740   0.900   0.420  1.00  0.00    -0.362 N 
ATOM      9  C   UNL     1       6.802   1.443   1.264  1.00  0.00    +0.145 C 
BRANCH   8  10
ATOM     10  C   UNL     1       5.892  -0.499   0.008  1.00  0.00    +0.114 C 
ATOM     11  C   UNL     1       5.066  -1.406   0.910  1.00  0.00    +0.027 C 
ENDBRANCH   8  10
ENDBRANCH   3   8
ENDBRANCH   1   2
BRANCH   1  12
ATOM     12  N   UNL     1       0.842   1.703  -1.509  1.00  0.00    -0.165 NA
ATOM     13  N   UNL     1       0.361   0.616  -1.878  1.00  0.00    -0.074 NA
BRANCH  13  14
ATOM     14  N   UNL     1      -0.590   0.327  -0.971  1.00  0.00    -0.260 N 
ATOM     15  H   UNL     1      -0.884   1.116  -0.405  1.00  0.00    +0.192 HD
BRANCH  14  16
ATOM     16  C   UNL     1      -1.587  -0.609  -1.290  1.00  0.00    +0.059 A 
ATOM     17  C   UNL     1      -1.448  -1.540  -2.318  1.00  0.00    +0.030 A 
ATOM     18  C   UNL     1      -2.724  -0.704  -0.479  1.00  0.00    +0.040 A 
ATOM     19  C   UNL     1      -2.435  -2.507  -2.549  1.00  0.00    +0.031 A 
ATOM     20  C   UNL     1      -3.734  -1.675  -0.718  1.00  0.00    +0.029 A 
ATOM     21  C   UNL     1      -3.577  -2.591  -1.765  1.00  0.00    +0.074 A 
ATOM     22  C   UNL     1      -4.917  -1.825   0.027  1.00  0.00    +0.081 A 
ATOM     23  N   UNL     1      -4.474  -3.545  -2.036  1.00  0.00    -0.236 NA
ATOM     24  N   UNL     1      -5.829  -2.789  -0.224  1.00  0.00    -0.236 NA
ATOM     25  C   UNL     1      -5.557  -3.599  -1.251  1.00  0.00    +0.223 A 
BRANCH  22  26
ATOM     26  C   UNL     1      -5.275  -0.944   1.150  1.00  0.00    +0.001 A 
ATOM     27  C   UNL     1      -5.706   0.375   0.925  1.00  0.00    +0.010 A 
ATOM     28  C   UNL     1      -5.196  -1.407   2.475  1.00  0.00    +0.010 A 
ATOM     29  C   UNL     1      -6.030   1.212   1.995  1.00  0.00    +0.001 A 
ATOM     30  C   UNL     1      -5.518  -0.569   3.545  1.00  0.00    +0.001 A 
ATOM     31  C   UNL     1      -5.932   0.740   3.304  1.00  0.00    +0.000 A 
ENDBRANCH  22  26
ENDBRANCH  14  16
ENDBRANCH  13  14
ENDBRANCH   1  12
TORSDOF 7
