REMARK SMILES Cc1cc(C)c(-c2ncnc3c2C(=C(C#N)C(N)=C(C#N)C#N)C(=O)N3)[nH]1
REMARK SMILES IDX 7 1 8 2 9 3 10 4 11 5 12 6 13 7 14 8 15 9 16 10 24 11 25 12
REMARK SMILES IDX 26 13 6 15 2 16 3 17 27 18 4 19 1 20 5 22 17 23 19 24 20 25
REMARK SMILES IDX 22 26 21 27 23 28 18 29
REMARK H PARENT 26 14 27 21 18 30 18 31
ROOT
ATOM      1  C   UNL     1      -1.462   1.335   0.065  1.00  0.00    +0.100 A 
ATOM      2  N   UNL     1      -2.507   2.182  -0.081  1.00  0.00    -0.234 NA
ATOM      3  C   UNL     1      -2.227   3.457  -0.406  1.00  0.00    +0.225 A 
ATOM      4  N   UNL     1      -1.008   3.957  -0.643  1.00  0.00    -0.218 NA
ATOM      5  C   UNL     1      -0.031   3.072  -0.454  1.00  0.00    +0.145 A 
ATOM      6  C   UNL     1      -0.165   1.766  -0.018  1.00  0.00    +0.059 A 
ATOM      7  C   UNL     1       1.187   1.198   0.036  1.00  0.00    +0.073 C 
ATOM      8  C   UNL     1       1.697   0.121   0.671  1.00  0.00    +0.091 C 
ATOM      9  C   UNL     1       0.939  -0.644   1.614  1.00  0.00    +0.102 C 
ATOM     10  N   UNL     1       0.388  -1.256   2.430  1.00  0.00    -0.192 NA
ATOM     11  C   UNL     1       2.081   2.217  -0.629  1.00  0.00    +0.259 C 
ATOM     12  O   UNL     1       3.252   2.095  -0.927  1.00  0.00    -0.269 OA
ATOM     13  N   UNL     1       1.288   3.329  -0.799  1.00  0.00    -0.306 N 
ATOM     14  H   UNL     1       1.585   4.191  -1.230  1.00  0.00    +0.171 HD
ENDROOT
BRANCH   1  15
ATOM     15  C   UNL     1      -1.859  -0.065   0.133  1.00  0.00    +0.068 A 
ATOM     16  C   UNL     1      -1.979  -2.227  -0.513  1.00  0.00    +0.012 A 
ATOM     17  C   UNL     1      -2.778  -2.080   0.598  1.00  0.00    +0.026 A 
ATOM     18  N   UNL     1      -1.452  -0.994  -0.804  1.00  0.00    -0.357 N 
ATOM     19  C   UNL     1      -2.725  -0.717   1.002  1.00  0.00    -0.024 A 
ATOM     20  C   UNL     1      -1.669  -3.420  -1.339  1.00  0.00    +0.064 C 
ATOM     21  H   UNL     1      -0.855  -0.806  -1.601  1.00  0.00    +0.166 HD
ATOM     22  C   UNL     1      -3.451  -0.119   2.155  1.00  0.00    +0.047 C 
ENDBRANCH   1  15
BRANCH   8  23
ATOM     23  C   UNL     1       3.094  -0.338   0.493  1.00  0.00    +0.079 C 
ATOM     24  C   UNL     1       3.428  -1.044  -0.622  1.00  0.00    +0.153 C 
ATOM     25  C   UNL     1       2.454  -1.343  -1.621  1.00  0.00    +0.113 C 
ATOM     26  C   UNL     1       4.757  -1.503  -0.834  1.00  0.00    +0.113 C 
ATOM     27  N   UNL     1       1.593  -1.524  -2.379  1.00  0.00    -0.192 NA
ATOM     28  N   UNL     1       5.848  -1.866  -0.994  1.00  0.00    -0.192 NA
BRANCH  23  29
ATOM     29  N   UNL     1       3.971   0.004   1.519  1.00  0.00    -0.396 N 
ATOM     30  H   UNL     1       4.963  -0.028   1.277  1.00  0.00    +0.156 HD
ATOM     31  H   UNL     1       3.749   0.878   1.996  1.00  0.00    +0.156 HD
ENDBRANCH  23  29
ENDBRANCH   8  23
TORSDOF 3
