MODEL 1
REMARK VINA RESULT:    -9.255      0.000      0.000
REMARK INTER + INTRA:         -11.574
REMARK INTER:                 -11.419
REMARK INTRA:                  -0.155
REMARK UNBOUND:                -0.155
REMARK SMILES O=[N+]([O-])c1ccc(O)cc1-c1ccc(-c2ccc(O)cc2)[nH]1
REMARK SMILES IDX 11 1 12 2 13 3 14 4 22 5 10 7 4 8 5 9 6 10 9 11 7 12 2 13
REMARK SMILES IDX 1 14 3 15 8 16 15 18 16 19 21 20 17 21 20 22 18 23 19 24
REMARK H PARENT 22 6 8 17 19 25
ROOT
ATOM      1  C   UNL     1      25.781   0.256  52.542  1.00  0.00    +0.053 A 
ATOM      2  C   UNL     1      25.431   1.324  51.737  1.00  0.00    +0.029 A 
ATOM      3  C   UNL     1      24.019   1.412  51.721  1.00  0.00    +0.029 A 
ATOM      4  C   UNL     1      23.513   0.390  52.505  1.00  0.00    +0.046 A 
ATOM      5  N   UNL     1      24.603  -0.292  53.001  1.00  0.00    -0.354 N 
ATOM      6  H   UNL     1      24.545  -1.067  53.647  1.00  0.00    +0.167 HD
ENDROOT
BRANCH   1   7
ATOM      7  C   UNL     1      27.093  -0.277  52.909  1.00  0.00    +0.079 A 
ATOM      8  C   UNL     1      28.173   0.520  53.316  1.00  0.00    +0.278 A 
ATOM      9  C   UNL     1      29.429  -0.021  53.635  1.00  0.00    +0.090 A 
ATOM     10  C   UNL     1      29.617  -1.399  53.554  1.00  0.00    +0.053 A 
ATOM     11  C   UNL     1      27.310  -1.662  52.836  1.00  0.00    +0.063 A 
ATOM     12  C   UNL     1      28.555  -2.206  53.156  1.00  0.00    +0.116 A 
BRANCH   8  13
ATOM     13  N   UNL     1      28.018   1.950  53.466  1.00  0.00    +0.063 N 
ATOM     14  O   UNL     1      27.209   2.344  54.317  1.00  0.00    -0.258 OA
ATOM     15  O   UNL     1      28.752   2.668  52.772  1.00  0.00    -0.258 OA
ENDBRANCH   8  13
BRANCH  12  16
ATOM     16  O   UNL     1      28.692  -3.560  53.062  1.00  0.00    -0.508 OA
ATOM     17  H   UNL     1      28.637  -3.823  52.129  1.00  0.00    +0.293 HD
ENDBRANCH  12  16
ENDBRANCH   1   7
BRANCH   4  18
ATOM     18  C   UNL     1      22.133   0.037  52.836  1.00  0.00    -0.002 A 
ATOM     19  C   UNL     1      21.861  -0.828  53.905  1.00  0.00    +0.014 A 
ATOM     20  C   UNL     1      21.056   0.558  52.101  1.00  0.00    +0.014 A 
ATOM     21  C   UNL     1      20.546  -1.171  54.227  1.00  0.00    +0.047 A 
ATOM     22  C   UNL     1      19.738   0.217  52.424  1.00  0.00    +0.047 A 
ATOM     23  C   UNL     1      19.496  -0.647  53.485  1.00  0.00    +0.115 A 
BRANCH  23  24
ATOM     24  O   UNL     1      18.228  -1.006  53.835  1.00  0.00    -0.508 OA
ATOM     25  H   UNL     1      18.134  -0.916  54.796  1.00  0.00    +0.293 HD
ENDBRANCH  23  24
ENDBRANCH   4  18
TORSDOF 5
ENDMDL
MODEL 2
REMARK VINA RESULT:    -8.860      2.718      3.664
REMARK INTER + INTRA:         -11.087
REMARK INTER:                 -10.455
REMARK INTRA:                  -0.632
REMARK UNBOUND:                -0.155
REMARK SMILES O=[N+]([O-])c1ccc(O)cc1-c1ccc(-c2ccc(O)cc2)[nH]1
REMARK SMILES IDX 11 1 12 2 13 3 14 4 22 5 10 7 4 8 5 9 6 10 9 11 7 12 2 13
REMARK SMILES IDX 1 14 3 15 8 16 15 18 16 19 21 20 17 21 20 22 18 23 19 24
REMARK H PARENT 22 6 8 17 19 25
ROOT
ATOM      1  C   UNL     1      25.851   0.301  52.798  1.00  0.00    +0.053 A 
ATOM      2  C   UNL     1      24.686   0.217  53.539  1.00  0.00    +0.029 A 
ATOM      3  C   UNL     1      23.672   0.909  52.834  1.00  0.00    +0.029 A 
ATOM      4  C   UNL     1      24.225   1.423  51.674  1.00  0.00    +0.046 A 
ATOM      5  N   UNL     1      25.546   1.031  51.669  1.00  0.00    -0.354 N 
ATOM      6  H   UNL     1      26.195   1.221  50.918  1.00  0.00    +0.167 HD
ENDROOT
BRANCH   1   7
ATOM      7  C   UNL     1      27.187  -0.237  53.052  1.00  0.00    +0.079 A 
ATOM      8  C   UNL     1      28.324   0.560  53.251  1.00  0.00    +0.278 A 
ATOM      9  C   UNL     1      29.599   0.012  53.465  1.00  0.00    +0.090 A 
ATOM     10  C   UNL     1      29.749  -1.373  53.490  1.00  0.00    +0.053 A 
ATOM     11  C   UNL     1      27.367  -1.628  53.082  1.00  0.00    +0.063 A 
ATOM     12  C   UNL     1      28.631  -2.180  53.299  1.00  0.00    +0.116 A 
BRANCH   8  13
ATOM     13  N   UNL     1      28.216   2.002  53.285  1.00  0.00    +0.063 N 
ATOM     14  O   UNL     1      28.412   2.557  54.375  1.00  0.00    -0.258 OA
ATOM     15  O   UNL     1      27.995   2.572  52.207  1.00  0.00    -0.258 OA
ENDBRANCH   8  13
BRANCH  12  16
ATOM     16  O   UNL     1      28.729  -3.540  53.315  1.00  0.00    -0.508 OA
ATOM     17  H   UNL     1      28.899  -3.859  52.414  1.00  0.00    +0.293 HD
ENDBRANCH  12  16
ENDBRANCH   1   7
BRANCH   4  18
ATOM     18  C   UNL     1      23.620   2.200  50.593  1.00  0.00    -0.002 A 
ATOM     19  C   UNL     1      24.264   3.341  50.096  1.00  0.00    +0.014 A 
ATOM     20  C   UNL     1      22.392   1.819  50.028  1.00  0.00    +0.014 A 
ATOM     21  C   UNL     1      23.692   4.090  49.065  1.00  0.00    +0.047 A 
ATOM     22  C   UNL     1      21.819   2.567  48.993  1.00  0.00    +0.047 A 
ATOM     23  C   UNL     1      22.475   3.698  48.522  1.00  0.00    +0.115 A 
BRANCH  23  24
ATOM     24  O   UNL     1      21.953   4.455  47.516  1.00  0.00    -0.508 OA
ATOM     25  H   UNL     1      21.851   3.899  46.729  1.00  0.00    +0.293 HD
ENDBRANCH  23  24
ENDBRANCH   4  18
TORSDOF 5
ENDMDL
MODEL 3
REMARK VINA RESULT:    -8.156      1.889      3.390
REMARK INTER + INTRA:         -10.218
REMARK INTER:                  -9.798
REMARK INTRA:                  -0.420
REMARK UNBOUND:                -0.155
REMARK SMILES O=[N+]([O-])c1ccc(O)cc1-c1ccc(-c2ccc(O)cc2)[nH]1
REMARK SMILES IDX 11 1 12 2 13 3 14 4 22 5 10 7 4 8 5 9 6 10 9 11 7 12 2 13
REMARK SMILES IDX 1 14 3 15 8 16 15 18 16 19 21 20 17 21 20 22 18 23 19 24
REMARK H PARENT 22 6 8 17 19 25
ROOT
ATOM      1  C   UNL     1      25.716  -0.247  53.828  1.00  0.00    +0.053 A 
ATOM      2  C   UNL     1      24.929  -0.878  54.773  1.00  0.00    +0.029 A 
ATOM      3  C   UNL     1      23.580  -0.773  54.355  1.00  0.00    +0.029 A 
ATOM      4  C   UNL     1      23.550  -0.066  53.166  1.00  0.00    +0.046 A 
ATOM      5  N   UNL     1      24.860   0.233  52.860  1.00  0.00    -0.354 N 
ATOM      6  H   UNL     1      25.155   0.708  52.019  1.00  0.00    +0.167 HD
ENDROOT
BRANCH   1   7
ATOM      7  C   UNL     1      27.166  -0.065  53.758  1.00  0.00    +0.079 A 
ATOM      8  C   UNL     1      28.051  -1.031  53.259  1.00  0.00    +0.278 A 
ATOM      9  C   UNL     1      29.442  -0.836  53.232  1.00  0.00    +0.090 A 
ATOM     10  C   UNL     1      29.970   0.362  53.709  1.00  0.00    +0.053 A 
ATOM     11  C   UNL     1      27.725   1.133  54.231  1.00  0.00    +0.063 A 
ATOM     12  C   UNL     1      29.106   1.335  54.203  1.00  0.00    +0.116 A 
BRANCH   8  13
ATOM     13  N   UNL     1      27.552  -2.271  52.706  1.00  0.00    +0.063 N 
ATOM     14  O   UNL     1      26.571  -2.199  51.953  1.00  0.00    -0.258 OA
ATOM     15  O   UNL     1      28.184  -3.301  52.982  1.00  0.00    -0.258 OA
ENDBRANCH   8  13
BRANCH  12  16
ATOM     16  O   UNL     1      29.577   2.523  54.680  1.00  0.00    -0.508 OA
ATOM     17  H   UNL     1      30.517   2.427  54.903  1.00  0.00    +0.293 HD
ENDBRANCH  12  16
ENDBRANCH   1   7
BRANCH   4  18
ATOM     18  C   UNL     1      22.426   0.309  52.309  1.00  0.00    -0.002 A 
ATOM     19  C   UNL     1      22.639   1.087  51.163  1.00  0.00    +0.014 A 
ATOM     20  C   UNL     1      21.118  -0.103  52.609  1.00  0.00    +0.014 A 
ATOM     21  C   UNL     1      21.571   1.451  50.340  1.00  0.00    +0.047 A 
ATOM     22  C   UNL     1      20.047   0.259  51.784  1.00  0.00    +0.047 A 
ATOM     23  C   UNL     1      20.284   1.035  50.657  1.00  0.00    +0.115 A 
BRANCH  23  24
ATOM     24  O   UNL     1      19.271   1.411  49.825  1.00  0.00    -0.508 OA
ATOM     25  H   UNL     1      18.712   0.638  49.648  1.00  0.00    +0.293 HD
ENDBRANCH  23  24
ENDBRANCH   4  18
TORSDOF 5
ENDMDL
MODEL 4
REMARK VINA RESULT:    -8.109      1.312      2.622
REMARK INTER + INTRA:         -10.160
REMARK INTER:                  -9.916
REMARK INTRA:                  -0.244
REMARK UNBOUND:                -0.155
REMARK SMILES O=[N+]([O-])c1ccc(O)cc1-c1ccc(-c2ccc(O)cc2)[nH]1
REMARK SMILES IDX 11 1 12 2 13 3 14 4 22 5 10 7 4 8 5 9 6 10 9 11 7 12 2 13
REMARK SMILES IDX 1 14 3 15 8 16 15 18 16 19 21 20 17 21 20 22 18 23 19 24
REMARK H PARENT 22 6 8 17 19 25
ROOT
ATOM      1  C   UNL     1      25.781   0.950  52.679  1.00  0.00    +0.053 A 
ATOM      2  C   UNL     1      25.273   1.810  51.723  1.00  0.00    +0.029 A 
ATOM      3  C   UNL     1      23.871   1.623  51.671  1.00  0.00    +0.029 A 
ATOM      4  C   UNL     1      23.532   0.641  52.585  1.00  0.00    +0.046 A 
ATOM      5  N   UNL     1      24.708   0.255  53.193  1.00  0.00    -0.354 N 
ATOM      6  H   UNL     1      24.767  -0.419  53.942  1.00  0.00    +0.167 HD
ENDROOT
BRANCH   1   7
ATOM      7  C   UNL     1      27.153   0.736  53.142  1.00  0.00    +0.079 A 
ATOM      8  C   UNL     1      27.796  -0.510  53.124  1.00  0.00    +0.278 A 
ATOM      9  C   UNL     1      29.105  -0.688  53.602  1.00  0.00    +0.090 A 
ATOM     10  C   UNL     1      29.800   0.409  54.107  1.00  0.00    +0.053 A 
ATOM     11  C   UNL     1      27.876   1.824  53.655  1.00  0.00    +0.063 A 
ATOM     12  C   UNL     1      29.178   1.654  54.127  1.00  0.00    +0.116 A 
BRANCH   8  13
ATOM     13  N   UNL     1      27.139  -1.671  52.565  1.00  0.00    +0.063 N 
ATOM     14  O   UNL     1      26.502  -1.508  51.515  1.00  0.00    -0.258 OA
ATOM     15  O   UNL     1      27.316  -2.750  53.149  1.00  0.00    -0.258 OA
ENDBRANCH   8  13
BRANCH  12  16
ATOM     16  O   UNL     1      29.819   2.756  54.612  1.00  0.00    -0.508 OA
ATOM     17  H   UNL     1      29.306   3.128  55.347  1.00  0.00    +0.293 HD
ENDBRANCH  12  16
ENDBRANCH   1   7
BRANCH   4  18
ATOM     18  C   UNL     1      22.229   0.079  52.940  1.00  0.00    -0.002 A 
ATOM     19  C   UNL     1      22.121  -0.852  53.983  1.00  0.00    +0.014 A 
ATOM     20  C   UNL     1      21.065   0.461  52.255  1.00  0.00    +0.014 A 
ATOM     21  C   UNL     1      20.881  -1.394  54.327  1.00  0.00    +0.047 A 
ATOM     22  C   UNL     1      19.822  -0.079  52.601  1.00  0.00    +0.047 A 
ATOM     23  C   UNL     1      19.742  -1.005  53.635  1.00  0.00    +0.115 A 
BRANCH  23  24
ATOM     24  O   UNL     1      18.552  -1.557  54.005  1.00  0.00    -0.508 OA
ATOM     25  H   UNL     1      18.513  -2.466  53.668  1.00  0.00    +0.293 HD
ENDBRANCH  23  24
ENDBRANCH   4  18
TORSDOF 5
ENDMDL
MODEL 5
REMARK VINA RESULT:    -7.897      2.286      3.605
REMARK INTER + INTRA:          -9.898
REMARK INTER:                  -9.361
REMARK INTRA:                  -0.537
REMARK UNBOUND:                -0.155
REMARK SMILES O=[N+]([O-])c1ccc(O)cc1-c1ccc(-c2ccc(O)cc2)[nH]1
REMARK SMILES IDX 11 1 12 2 13 3 14 4 22 5 10 7 4 8 5 9 6 10 9 11 7 12 2 13
REMARK SMILES IDX 1 14 3 15 8 16 15 18 16 19 21 20 17 21 20 22 18 23 19 24
REMARK H PARENT 22 6 8 17 19 25
ROOT
ATOM      1  C   UNL     1      23.204  -0.436  53.607  1.00  0.00    +0.053 A 
ATOM      2  C   UNL     1      22.741  -1.002  54.781  1.00  0.00    +0.029 A 
ATOM      3  C   UNL     1      21.338  -1.149  54.670  1.00  0.00    +0.029 A 
ATOM      4  C   UNL     1      20.949  -0.660  53.435  1.00  0.00    +0.046 A 
ATOM      5  N   UNL     1      22.101  -0.243  52.804  1.00  0.00    -0.354 N 
ATOM      6  H   UNL     1      22.135   0.120  51.862  1.00  0.00    +0.167 HD
ENDROOT
BRANCH   1   7
ATOM      7  C   UNL     1      24.558  -0.076  53.187  1.00  0.00    +0.079 A 
ATOM      8  C   UNL     1      24.847   0.974  52.302  1.00  0.00    +0.278 A 
ATOM      9  C   UNL     1      26.157   1.276  51.897  1.00  0.00    +0.090 A 
ATOM     10  C   UNL     1      27.215   0.516  52.391  1.00  0.00    +0.053 A 
ATOM     11  C   UNL     1      25.642  -0.825  53.670  1.00  0.00    +0.063 A 
ATOM     12  C   UNL     1      26.947  -0.527  53.273  1.00  0.00    +0.116 A 
BRANCH   8  13
ATOM     13  N   UNL     1      23.792   1.825  51.799  1.00  0.00    +0.063 N 
ATOM     14  O   UNL     1      23.331   1.553  50.683  1.00  0.00    -0.258 OA
ATOM     15  O   UNL     1      23.391   2.724  52.553  1.00  0.00    -0.258 OA
ENDBRANCH   8  13
BRANCH  12  16
ATOM     16  O   UNL     1      27.950  -1.297  53.783  1.00  0.00    -0.508 OA
ATOM     17  H   UNL     1      28.058  -2.088  53.230  1.00  0.00    +0.293 HD
ENDBRANCH  12  16
ENDBRANCH   1   7
BRANCH   4  18
ATOM     18  C   UNL     1      19.627  -0.587  52.813  1.00  0.00    -0.002 A 
ATOM     19  C   UNL     1      19.417   0.228  51.692  1.00  0.00    +0.014 A 
ATOM     20  C   UNL     1      18.548  -1.331  53.316  1.00  0.00    +0.014 A 
ATOM     21  C   UNL     1      18.158   0.305  51.093  1.00  0.00    +0.047 A 
ATOM     22  C   UNL     1      17.286  -1.257  52.716  1.00  0.00    +0.047 A 
ATOM     23  C   UNL     1      17.103  -0.438  51.609  1.00  0.00    +0.115 A 
BRANCH  23  24
ATOM     24  O   UNL     1      15.892  -0.335  50.993  1.00  0.00    -0.508 OA
ATOM     25  H   UNL     1      15.987  -0.618  50.070  1.00  0.00    +0.293 HD
ENDBRANCH  23  24
ENDBRANCH   4  18
TORSDOF 5
ENDMDL
MODEL 6
REMARK VINA RESULT:    -7.842      3.630      6.898
REMARK INTER + INTRA:          -9.831
REMARK INTER:                  -9.361
REMARK INTRA:                  -0.471
REMARK UNBOUND:                -0.155
REMARK SMILES O=[N+]([O-])c1ccc(O)cc1-c1ccc(-c2ccc(O)cc2)[nH]1
REMARK SMILES IDX 11 1 12 2 13 3 14 4 22 5 10 7 4 8 5 9 6 10 9 11 7 12 2 13
REMARK SMILES IDX 1 14 3 15 8 16 15 18 16 19 21 20 17 21 20 22 18 23 19 24
REMARK H PARENT 22 6 8 17 19 25
ROOT
ATOM      1  C   UNL     1      24.569   1.019  52.336  1.00  0.00    +0.053 A 
ATOM      2  C   UNL     1      25.882   0.617  52.173  1.00  0.00    +0.029 A 
ATOM      3  C   UNL     1      26.533   1.576  51.360  1.00  0.00    +0.029 A 
ATOM      4  C   UNL     1      25.611   2.550  51.019  1.00  0.00    +0.046 A 
ATOM      5  N   UNL     1      24.429   2.196  51.632  1.00  0.00    -0.354 N 
ATOM      6  H   UNL     1      23.583   2.747  51.601  1.00  0.00    +0.167 HD
ENDROOT
BRANCH   1   7
ATOM      7  C   UNL     1      23.466   0.410  53.079  1.00  0.00    +0.079 A 
ATOM      8  C   UNL     1      22.114   0.696  52.844  1.00  0.00    +0.278 A 
ATOM      9  C   UNL     1      21.080   0.114  53.595  1.00  0.00    +0.090 A 
ATOM     10  C   UNL     1      21.399  -0.788  54.608  1.00  0.00    +0.053 A 
ATOM     11  C   UNL     1      23.760  -0.502  54.105  1.00  0.00    +0.063 A 
ATOM     12  C   UNL     1      22.737  -1.088  54.853  1.00  0.00    +0.116 A 
BRANCH   8  13
ATOM     13  N   UNL     1      21.725   1.586  51.772  1.00  0.00    +0.063 N 
ATOM     14  O   UNL     1      21.531   2.773  52.066  1.00  0.00    -0.258 OA
ATOM     15  O   UNL     1      21.675   1.101  50.633  1.00  0.00    -0.258 OA
ENDBRANCH   8  13
BRANCH  12  16
ATOM     16  O   UNL     1      23.097  -1.964  55.834  1.00  0.00    -0.508 OA
ATOM     17  H   UNL     1      23.320  -1.469  56.639  1.00  0.00    +0.293 HD
ENDBRANCH  12  16
ENDBRANCH   1   7
BRANCH   4  18
ATOM     18  C   UNL     1      25.761   3.763  50.215  1.00  0.00    -0.002 A 
ATOM     19  C   UNL     1      26.933   3.983  49.479  1.00  0.00    +0.014 A 
ATOM     20  C   UNL     1      24.739   4.723  50.156  1.00  0.00    +0.014 A 
ATOM     21  C   UNL     1      27.085   5.139  48.710  1.00  0.00    +0.047 A 
ATOM     22  C   UNL     1      24.888   5.881  49.384  1.00  0.00    +0.047 A 
ATOM     23  C   UNL     1      26.063   6.078  48.668  1.00  0.00    +0.115 A 
BRANCH  23  24
ATOM     24  O   UNL     1      26.251   7.190  47.903  1.00  0.00    -0.508 OA
ATOM     25  H   UNL     1      25.627   7.874  48.191  1.00  0.00    +0.293 HD
ENDBRANCH  23  24
ENDBRANCH   4  18
TORSDOF 5
ENDMDL
MODEL 7
REMARK VINA RESULT:    -7.812      2.161      7.506
REMARK INTER + INTRA:          -9.794
REMARK INTER:                  -9.164
REMARK INTRA:                  -0.630
REMARK UNBOUND:                -0.155
REMARK SMILES O=[N+]([O-])c1ccc(O)cc1-c1ccc(-c2ccc(O)cc2)[nH]1
REMARK SMILES IDX 11 1 12 2 13 3 14 4 22 5 10 7 4 8 5 9 6 10 9 11 7 12 2 13
REMARK SMILES IDX 1 14 3 15 8 16 15 18 16 19 21 20 17 21 20 22 18 23 19 24
REMARK H PARENT 22 6 8 17 19 25
ROOT
ATOM      1  C   UNL     1      22.344   1.017  52.479  1.00  0.00    +0.053 A 
ATOM      2  C   UNL     1      22.828   2.309  52.402  1.00  0.00    +0.029 A 
ATOM      3  C   UNL     1      24.226   2.264  52.614  1.00  0.00    +0.029 A 
ATOM      4  C   UNL     1      24.588   0.946  52.834  1.00  0.00    +0.046 A 
ATOM      5  N   UNL     1      23.429   0.206  52.736  1.00  0.00    -0.354 N 
ATOM      6  H   UNL     1      23.389  -0.801  52.806  1.00  0.00    +0.167 HD
ENDROOT
BRANCH   1   7
ATOM      7  C   UNL     1      20.987   0.492  52.332  1.00  0.00    +0.079 A 
ATOM      8  C   UNL     1      20.332  -0.267  53.314  1.00  0.00    +0.278 A 
ATOM      9  C   UNL     1      19.038  -0.780  53.130  1.00  0.00    +0.090 A 
ATOM     10  C   UNL     1      18.369  -0.525  51.935  1.00  0.00    +0.053 A 
ATOM     11  C   UNL     1      20.289   0.734  51.138  1.00  0.00    +0.063 A 
ATOM     12  C   UNL     1      19.001   0.231  50.951  1.00  0.00    +0.116 A 
BRANCH   8  13
ATOM     13  N   UNL     1      20.962  -0.518  54.592  1.00  0.00    +0.063 N 
ATOM     14  O   UNL     1      20.878   0.373  55.447  1.00  0.00    -0.258 OA
ATOM     15  O   UNL     1      21.483  -1.632  54.749  1.00  0.00    -0.258 OA
ENDBRANCH   8  13
BRANCH  12  16
ATOM     16  O   UNL     1      18.385   0.506  49.766  1.00  0.00    -0.508 OA
ATOM     17  H   UNL     1      18.230   1.462  49.700  1.00  0.00    +0.293 HD
ENDBRANCH  12  16
ENDBRANCH   1   7
BRANCH   4  18
ATOM     18  C   UNL     1      25.898   0.348  53.088  1.00  0.00    -0.002 A 
ATOM     19  C   UNL     1      26.203  -0.925  52.587  1.00  0.00    +0.014 A 
ATOM     20  C   UNL     1      26.875   1.031  53.829  1.00  0.00    +0.014 A 
ATOM     21  C   UNL     1      27.451  -1.505  52.827  1.00  0.00    +0.047 A 
ATOM     22  C   UNL     1      28.126   0.453  54.068  1.00  0.00    +0.047 A 
ATOM     23  C   UNL     1      28.402  -0.813  53.564  1.00  0.00    +0.115 A 
BRANCH  23  24
ATOM     24  O   UNL     1      29.607  -1.414  53.773  1.00  0.00    -0.508 OA
ATOM     25  H   UNL     1      29.527  -2.017  54.528  1.00  0.00    +0.293 HD
ENDBRANCH  23  24
ENDBRANCH   4  18
TORSDOF 5
ENDMDL
MODEL 8
REMARK VINA RESULT:    -7.674      2.315      7.708
REMARK INTER + INTRA:          -9.623
REMARK INTER:                  -9.222
REMARK INTRA:                  -0.401
REMARK UNBOUND:                -0.155
REMARK SMILES O=[N+]([O-])c1ccc(O)cc1-c1ccc(-c2ccc(O)cc2)[nH]1
REMARK SMILES IDX 11 1 12 2 13 3 14 4 22 5 10 7 4 8 5 9 6 10 9 11 7 12 2 13
REMARK SMILES IDX 1 14 3 15 8 16 15 18 16 19 21 20 17 21 20 22 18 23 19 24
REMARK H PARENT 22 6 8 17 19 25
ROOT
ATOM      1  C   UNL     1      21.499  -0.670  53.590  1.00  0.00    +0.053 A 
ATOM      2  C   UNL     1      21.839  -1.355  54.742  1.00  0.00    +0.029 A 
ATOM      3  C   UNL     1      23.227  -1.183  54.957  1.00  0.00    +0.029 A 
ATOM      4  C   UNL     1      23.731  -0.406  53.928  1.00  0.00    +0.046 A 
ATOM      5  N   UNL     1      22.660  -0.098  53.117  1.00  0.00    -0.354 N 
ATOM      6  H   UNL     1      22.714   0.500  52.305  1.00  0.00    +0.167 HD
ENDROOT
BRANCH   1   7
ATOM      7  C   UNL     1      20.210  -0.509  52.918  1.00  0.00    +0.079 A 
ATOM      8  C   UNL     1      20.008   0.321  51.805  1.00  0.00    +0.278 A 
ATOM      9  C   UNL     1      18.750   0.475  51.199  1.00  0.00    +0.090 A 
ATOM     10  C   UNL     1      17.659  -0.223  51.711  1.00  0.00    +0.053 A 
ATOM     11  C   UNL     1      19.093  -1.201  53.412  1.00  0.00    +0.063 A 
ATOM     12  C   UNL     1      17.841  -1.056  52.812  1.00  0.00    +0.116 A 
BRANCH   8  13
ATOM     13  N   UNL     1      21.117   1.029  51.204  1.00  0.00    +0.063 N 
ATOM     14  O   UNL     1      21.687   0.480  50.251  1.00  0.00    -0.258 OA
ATOM     15  O   UNL     1      21.369   2.156  51.652  1.00  0.00    -0.258 OA
ENDBRANCH   8  13
BRANCH  12  16
ATOM     16  O   UNL     1      16.802  -1.759  53.347  1.00  0.00    -0.508 OA
ATOM     17  H   UNL     1      15.966  -1.404  53.005  1.00  0.00    +0.293 HD
ENDBRANCH  12  16
ENDBRANCH   1   7
BRANCH   4  18
ATOM     18  C   UNL     1      25.088   0.078  53.676  1.00  0.00    -0.002 A 
ATOM     19  C   UNL     1      25.416   0.649  52.439  1.00  0.00    +0.014 A 
ATOM     20  C   UNL     1      26.083  -0.012  54.662  1.00  0.00    +0.014 A 
ATOM     21  C   UNL     1      26.710   1.112  52.189  1.00  0.00    +0.047 A 
ATOM     22  C   UNL     1      27.379   0.453  54.414  1.00  0.00    +0.047 A 
ATOM     23  C   UNL     1      27.680   1.010  53.177  1.00  0.00    +0.115 A 
BRANCH  23  24
ATOM     24  O   UNL     1      28.930   1.477  52.892  1.00  0.00    -0.508 OA
ATOM     25  H   UNL     1      28.852   2.376  52.537  1.00  0.00    +0.293 HD
ENDBRANCH  23  24
ENDBRANCH   4  18
TORSDOF 5
ENDMDL
MODEL 9
REMARK VINA RESULT:    -7.561      2.462      7.397
REMARK INTER + INTRA:          -9.485
REMARK INTER:                  -8.904
REMARK INTRA:                  -0.580
REMARK UNBOUND:                -0.155
REMARK SMILES O=[N+]([O-])c1ccc(O)cc1-c1ccc(-c2ccc(O)cc2)[nH]1
REMARK SMILES IDX 11 1 12 2 13 3 14 4 22 5 10 7 4 8 5 9 6 10 9 11 7 12 2 13
REMARK SMILES IDX 1 14 3 15 8 16 15 18 16 19 21 20 17 21 20 22 18 23 19 24
REMARK H PARENT 22 6 8 17 19 25
ROOT
ATOM      1  C   UNL     1      22.721   1.235  52.610  1.00  0.00    +0.053 A 
ATOM      2  C   UNL     1      23.217   2.509  52.809  1.00  0.00    +0.029 A 
ATOM      3  C   UNL     1      24.605   2.401  53.065  1.00  0.00    +0.029 A 
ATOM      4  C   UNL     1      24.946   1.060  53.034  1.00  0.00    +0.046 A 
ATOM      5  N   UNL     1      23.787   0.372  52.745  1.00  0.00    -0.354 N 
ATOM      6  H   UNL     1      23.736  -0.628  52.613  1.00  0.00    +0.167 HD
ENDROOT
BRANCH   1   7
ATOM      7  C   UNL     1      21.366   0.771  52.307  1.00  0.00    +0.079 A 
ATOM      8  C   UNL     1      20.673   1.098  51.133  1.00  0.00    +0.278 A 
ATOM      9  C   UNL     1      19.362   0.660  50.886  1.00  0.00    +0.090 A 
ATOM     10  C   UNL     1      18.721  -0.136  51.832  1.00  0.00    +0.053 A 
ATOM     11  C   UNL     1      20.697  -0.033  53.244  1.00  0.00    +0.063 A 
ATOM     12  C   UNL     1      19.396  -0.475  53.002  1.00  0.00    +0.116 A 
BRANCH   8  13
ATOM     13  N   UNL     1      21.310   1.880  50.096  1.00  0.00    +0.063 N 
ATOM     14  O   UNL     1      21.984   1.265  49.258  1.00  0.00    -0.258 OA
ATOM     15  O   UNL     1      21.080   3.098  50.092  1.00  0.00    -0.258 OA
ENDBRANCH   8  13
BRANCH  12  16
ATOM     16  O   UNL     1      18.809  -1.252  53.957  1.00  0.00    -0.508 OA
ATOM     17  H   UNL     1      18.699  -2.154  53.613  1.00  0.00    +0.293 HD
ENDBRANCH  12  16
ENDBRANCH   1   7
BRANCH   4  18
ATOM     18  C   UNL     1      26.239   0.402  53.219  1.00  0.00    -0.002 A 
ATOM     19  C   UNL     1      27.254   1.030  53.954  1.00  0.00    +0.014 A 
ATOM     20  C   UNL     1      26.490  -0.867  52.673  1.00  0.00    +0.014 A 
ATOM     21  C   UNL     1      28.492   0.409  54.134  1.00  0.00    +0.047 A 
ATOM     22  C   UNL     1      27.729  -1.491  52.853  1.00  0.00    +0.047 A 
ATOM     23  C   UNL     1      28.720  -0.845  53.582  1.00  0.00    +0.115 A 
BRANCH  23  24
ATOM     24  O   UNL     1      29.942  -1.415  53.783  1.00  0.00    -0.508 OA
ATOM     25  H   UNL     1      30.331  -1.628  52.921  1.00  0.00    +0.293 HD
ENDBRANCH  23  24
ENDBRANCH   4  18
TORSDOF 5
ENDMDL
