REMARK SMILES N#CC(=Cc1ccc(F)c(Cl)c1)C(N)=C(C#N)C(N)=C(C#N)C#N
REMARK SMILES IDX 13 1 15 2 16 3 17 4 3 5 1 6 2 7 4 8 5 9 6 10 12 11 7 12
REMARK SMILES IDX 10 13 8 14 11 15 9 16 14 17 18 20 20 21 21 22 23 23 22 24
REMARK SMILES IDX 24 25 19 26
REMARK H PARENT 14 18 14 19 19 27 19 28
ROOT
ATOM      1  C   UNL     1      -1.214   0.496   0.311  1.00  0.00    +0.070 C 
ATOM      2  C   UNL     1      -1.677  -0.674   0.832  1.00  0.00    +0.101 C 
ATOM      3  C   UNL     1      -0.990  -1.914   0.611  1.00  0.00    +0.104 C 
ATOM      4  N   UNL     1      -0.424  -2.915   0.456  1.00  0.00    -0.192 NA
ENDROOT
BRANCH   1   5
ATOM      5  C   UNL     1      -0.007   0.520  -0.531  1.00  0.00    +0.077 C 
ATOM      6  N   UNL     1      -0.377   0.551  -3.095  1.00  0.00    -0.192 NA
ATOM      7  C   UNL     1      -0.201   0.526  -1.949  1.00  0.00    +0.101 C 
ATOM      8  C   UNL     1       1.217   0.553   0.033  1.00  0.00    +0.029 C 
BRANCH   8   9
ATOM      9  C   UNL     1       2.482   0.562  -0.709  1.00  0.00    -0.023 A 
ATOM     10  C   UNL     1       3.212   1.752  -0.818  1.00  0.00    +0.011 A 
ATOM     11  C   UNL     1       2.967  -0.611  -1.304  1.00  0.00    +0.031 A 
ATOM     12  C   UNL     1       4.418   1.772  -1.522  1.00  0.00    +0.041 A 
ATOM     13  C   UNL     1       4.174  -0.586  -2.006  1.00  0.00    +0.077 A 
ATOM     14  C   UNL     1       4.892   0.603  -2.112  1.00  0.00    +0.141 A 
ATOM     15 Cl   UNL     1       4.763  -2.034  -2.727  1.00  0.00    -0.081 Cl
ATOM     16  F   UNL     1       6.054   0.646  -2.779  1.00  0.00    -0.205 F 
ENDBRANCH   8   9
ENDBRANCH   1   5
BRANCH   1  17
ATOM     17  N   UNL     1      -1.780   1.741   0.558  1.00  0.00    -0.397 N 
ATOM     18  H   UNL     1      -1.734   2.400  -0.218  1.00  0.00    +0.156 HD
ATOM     19  H   UNL     1      -2.691   1.730   1.014  1.00  0.00    +0.156 HD
ENDBRANCH   1  17
BRANCH   2  20
ATOM     20  C   UNL     1      -2.891  -0.747   1.679  1.00  0.00    +0.081 C 
ATOM     21  C   UNL     1      -4.046  -1.284   1.199  1.00  0.00    +0.153 C 
ATOM     22  C   UNL     1      -5.212  -1.341   2.013  1.00  0.00    +0.113 C 
ATOM     23  C   UNL     1      -4.162  -1.778  -0.133  1.00  0.00    +0.113 C 
ATOM     24  N   UNL     1      -6.141  -1.380   2.709  1.00  0.00    -0.192 NA
ATOM     25  N   UNL     1      -4.234  -2.161  -1.224  1.00  0.00    -0.192 NA
BRANCH  20  26
ATOM     26  N   UNL     1      -2.757  -0.191   2.950  1.00  0.00    -0.396 N 
ATOM     27  H   UNL     1      -1.802  -0.133   3.305  1.00  0.00    +0.156 HD
ATOM     28  H   UNL     1      -3.416  -0.505   3.664  1.00  0.00    +0.156 HD
ENDBRANCH  20  26
ENDBRANCH   2  20
TORSDOF 5
