REMARK SMILES COc1c(C)[nH]c(C=C(N)C(C#N)=C(C#N)C#N)c1C
REMARK SMILES IDX 3 1 4 2 5 3 6 4 7 5 19 6 20 7 2 9 1 10 8 11 9 12 10 13 11 16
REMARK SMILES IDX 12 17 14 18 13 19 15 20 17 21 16 22 18 23
REMARK H PARENT 6 8 10 14 10 15
ROOT
ATOM      1  C   UNL     1      -1.928   0.122   0.598  1.00  0.00    +0.142 A 
ATOM      2  C   UNL     1      -1.362   0.205   1.851  1.00  0.00    +0.055 A 
ATOM      3  C   UNL     1      -1.821   0.897   3.080  1.00  0.00    +0.068 C 
ATOM      4  N   UNL     1      -0.198  -0.518   1.819  1.00  0.00    -0.356 N 
ATOM      5  C   UNL     1      -0.001  -1.031   0.558  1.00  0.00    +0.047 A 
ATOM      6  C   UNL     1      -1.101  -0.701  -0.222  1.00  0.00    +0.016 A 
ATOM      7  C   UNL     1      -1.370  -1.152  -1.615  1.00  0.00    +0.051 C 
ATOM      8  H   UNL     1       0.442  -0.617   2.599  1.00  0.00    +0.166 HD
ENDROOT
BRANCH   1   9
ATOM      9  O   UNL     1      -3.115   0.713   0.340  1.00  0.00    -0.495 OA
ATOM     10  C   UNL     1      -3.153   1.396  -0.906  1.00  0.00    +0.278 C 
ENDBRANCH   1   9
BRANCH   5  11
ATOM     11  C   UNL     1       1.187  -1.770   0.337  1.00  0.00    +0.053 C 
ATOM     12  C   UNL     1       2.204  -1.316  -0.428  1.00  0.00    +0.054 C 
BRANCH  12  13
ATOM     13  N   UNL     1       3.362  -2.057  -0.601  1.00  0.00    -0.398 N 
ATOM     14  H   UNL     1       3.793  -1.964  -1.520  1.00  0.00    +0.156 HD
ATOM     15  H   UNL     1       3.262  -3.040  -0.348  1.00  0.00    +0.156 HD
ENDBRANCH  12  13
BRANCH  12  16
ATOM     16  C   UNL     1       2.176   0.010  -1.065  1.00  0.00    +0.103 C 
ATOM     17  C   UNL     1       1.917   0.016  -2.471  1.00  0.00    +0.103 C 
ATOM     18  C   UNL     1       2.373   1.162  -0.384  1.00  0.00    +0.149 C 
ATOM     19  N   UNL     1       1.720   0.011  -3.614  1.00  0.00    -0.192 NA
ATOM     20  C   UNL     1       2.636   1.156   1.016  1.00  0.00    +0.112 C 
ATOM     21  C   UNL     1       2.323   2.428  -1.032  1.00  0.00    +0.112 C 
ATOM     22  N   UNL     1       2.824   1.136   2.161  1.00  0.00    -0.192 NA
ATOM     23  N   UNL     1       2.287   3.458  -1.565  1.00  0.00    -0.192 NA
ENDBRANCH  12  16
ENDBRANCH   5  11
TORSDOF 4
