MODEL 1
REMARK VINA RESULT:    -8.018      0.000      0.000
REMARK INTER + INTRA:         -10.173
REMARK INTER:                  -9.190
REMARK INTRA:                  -0.983
REMARK UNBOUND:                -0.983
REMARK SMILES N#CC(C#N)=C(N)C(C#N)=C1C(=O)Nc2ncnc(-c3cccc(Br)c3)c21
REMARK SMILES IDX 8 1 9 2 10 3 11 4 12 5 13 6 14 7 15 8 16 9 17 10 18 11 19 12
REMARK SMILES IDX 27 13 6 15 1 16 2 17 3 18 4 19 5 20 7 21 20 24 21 25 26 26
REMARK SMILES IDX 22 27 24 28 23 29 25 30
REMARK H PARENT 14 14 7 22 7 23
ROOT
ATOM      1  C   UNL     1      18.817   0.650  51.016  1.00  0.00    +0.091 C 
ATOM      2  C   UNL     1      19.779   1.254  50.147  1.00  0.00    +0.102 C 
ATOM      3  N   UNL     1      20.526   1.700  49.380  1.00  0.00    -0.192 NA
ATOM      4  C   UNL     1      19.160   0.054  52.179  1.00  0.00    +0.073 C 
ATOM      5  C   UNL     1      18.178  -0.834  52.911  1.00  0.00    +0.259 C 
ATOM      6  O   UNL     1      16.982  -0.933  52.724  1.00  0.00    -0.269 OA
ATOM      7  N   UNL     1      18.934  -1.539  53.812  1.00  0.00    -0.306 N 
ATOM      8  C   UNL     1      20.255  -1.121  53.810  1.00  0.00    +0.145 A 
ATOM      9  N   UNL     1      21.153  -1.622  54.657  1.00  0.00    -0.218 NA
ATOM     10  C   UNL     1      22.341  -1.020  54.582  1.00  0.00    +0.224 A 
ATOM     11  N   UNL     1      22.639   0.034  53.801  1.00  0.00    -0.236 NA
ATOM     12  C   UNL     1      21.667   0.523  52.985  1.00  0.00    +0.084 A 
ATOM     13  C   UNL     1      20.442  -0.096  52.895  1.00  0.00    +0.058 A 
ATOM     14  H   UNL     1      18.576  -2.234  54.449  1.00  0.00    +0.171 HD
ENDROOT
BRANCH   1  15
ATOM     15  C   UNL     1      17.442   0.643  50.460  1.00  0.00    +0.079 C 
ATOM     16  N   UNL     1      14.199   1.646  49.708  1.00  0.00    -0.192 NA
ATOM     17  C   UNL     1      15.271   1.673  50.155  1.00  0.00    +0.113 C 
ATOM     18  C   UNL     1      16.591   1.681  50.685  1.00  0.00    +0.153 C 
ATOM     19  C   UNL     1      16.986   2.824  51.439  1.00  0.00    +0.113 C 
ATOM     20  N   UNL     1      17.366   3.734  52.050  1.00  0.00    -0.192 NA
BRANCH  15  21
ATOM     21  N   UNL     1      17.129  -0.496  49.719  1.00  0.00    -0.396 N 
ATOM     22  H   UNL     1      17.531  -1.369  50.068  1.00  0.00    +0.156 HD
ATOM     23  H   UNL     1      16.135  -0.618  49.527  1.00  0.00    +0.156 HD
ENDBRANCH  15  21
ENDBRANCH   1  15
BRANCH  12  24
ATOM     24  C   UNL     1      22.022   1.803  52.365  1.00  0.00    +0.002 A 
ATOM     25  C   UNL     1      21.217   2.940  52.553  1.00  0.00    +0.010 A 
ATOM     26  C   UNL     1      23.138   1.913  51.515  1.00  0.00    +0.026 A 
ATOM     27  C   UNL     1      21.535   4.157  51.944  1.00  0.00    +0.002 A 
ATOM     28  C   UNL     1      23.452   3.132  50.912  1.00  0.00    +0.018 A 
ATOM     29  C   UNL     1      22.659   4.256  51.126  1.00  0.00    +0.016 A 
ATOM     30 Br   UNL     1      24.971   3.253  49.793  1.00  0.00    -0.051 Br
ENDBRANCH  12  24
TORSDOF 3
ENDMDL
MODEL 2
REMARK VINA RESULT:    -7.654      3.402      6.155
REMARK INTER + INTRA:          -9.755
REMARK INTER:                  -8.895
REMARK INTRA:                  -0.860
REMARK UNBOUND:                -0.983
REMARK SMILES N#CC(C#N)=C(N)C(C#N)=C1C(=O)Nc2ncnc(-c3cccc(Br)c3)c21
REMARK SMILES IDX 8 1 9 2 10 3 11 4 12 5 13 6 14 7 15 8 16 9 17 10 18 11 19 12
REMARK SMILES IDX 27 13 6 15 1 16 2 17 3 18 4 19 5 20 7 21 20 24 21 25 26 26
REMARK SMILES IDX 22 27 24 28 23 29 25 30
REMARK H PARENT 14 14 7 22 7 23
ROOT
ATOM      1  C   UNL     1      22.680   3.086  52.332  1.00  0.00    +0.091 C 
ATOM      2  C   UNL     1      21.277   3.343  52.220  1.00  0.00    +0.102 C 
ATOM      3  N   UNL     1      20.152   3.621  52.170  1.00  0.00    -0.192 NA
ATOM      4  C   UNL     1      23.171   1.909  52.778  1.00  0.00    +0.073 C 
ATOM      5  C   UNL     1      24.625   1.780  53.176  1.00  0.00    +0.259 C 
ATOM      6  O   UNL     1      25.532   2.552  52.941  1.00  0.00    -0.269 OA
ATOM      7  N   UNL     1      24.697   0.614  53.897  1.00  0.00    -0.306 N 
ATOM      8  C   UNL     1      23.486  -0.058  53.906  1.00  0.00    +0.145 A 
ATOM      9  N   UNL     1      23.346  -1.248  54.488  1.00  0.00    -0.218 NA
ATOM     10  C   UNL     1      22.141  -1.789  54.298  1.00  0.00    +0.224 A 
ATOM     11  N   UNL     1      21.156  -1.266  53.547  1.00  0.00    -0.236 NA
ATOM     12  C   UNL     1      21.374  -0.065  52.947  1.00  0.00    +0.084 A 
ATOM     13  C   UNL     1      22.535   0.637  53.173  1.00  0.00    +0.058 A 
ATOM     14  H   UNL     1      25.535   0.248  54.320  1.00  0.00    +0.171 HD
ENDROOT
BRANCH   1  15
ATOM     15  C   UNL     1      23.522   4.268  52.027  1.00  0.00    +0.079 C 
ATOM     16  N   UNL     1      25.438   6.565  50.254  1.00  0.00    -0.192 NA
ATOM     17  C   UNL     1      24.781   5.632  50.469  1.00  0.00    +0.113 C 
ATOM     18  C   UNL     1      23.970   4.500  50.762  1.00  0.00    +0.153 C 
ATOM     19  C   UNL     1      23.633   3.639  49.678  1.00  0.00    +0.113 C 
ATOM     20  N   UNL     1      23.317   2.910  48.833  1.00  0.00    -0.192 NA
BRANCH  15  21
ATOM     21  N   UNL     1      23.798   5.077  53.129  1.00  0.00    -0.396 N 
ATOM     22  H   UNL     1      23.488   6.048  53.047  1.00  0.00    +0.156 HD
ATOM     23  H   UNL     1      23.505   4.688  54.025  1.00  0.00    +0.156 HD
ENDBRANCH  15  21
ENDBRANCH   1  15
BRANCH  12  24
ATOM     24  C   UNL     1      20.338   0.292  51.973  1.00  0.00    +0.002 A 
ATOM     25  C   UNL     1      20.682   0.633  50.653  1.00  0.00    +0.010 A 
ATOM     26  C   UNL     1      18.985   0.365  52.347  1.00  0.00    +0.026 A 
ATOM     27  C   UNL     1      19.703   0.999  49.726  1.00  0.00    +0.002 A 
ATOM     28  C   UNL     1      18.011   0.729  51.414  1.00  0.00    +0.018 A 
ATOM     29  C   UNL     1      18.363   1.042  50.105  1.00  0.00    +0.016 A 
ATOM     30 Br   UNL     1      16.196   0.795  51.942  1.00  0.00    -0.051 Br
ENDBRANCH  12  24
TORSDOF 3
ENDMDL
MODEL 3
REMARK VINA RESULT:    -7.640      4.176      6.446
REMARK INTER + INTRA:          -9.740
REMARK INTER:                  -8.766
REMARK INTRA:                  -0.974
REMARK UNBOUND:                -0.983
REMARK SMILES N#CC(C#N)=C(N)C(C#N)=C1C(=O)Nc2ncnc(-c3cccc(Br)c3)c21
REMARK SMILES IDX 8 1 9 2 10 3 11 4 12 5 13 6 14 7 15 8 16 9 17 10 18 11 19 12
REMARK SMILES IDX 27 13 6 15 1 16 2 17 3 18 4 19 5 20 7 21 20 24 21 25 26 26
REMARK SMILES IDX 22 27 24 28 23 29 25 30
REMARK H PARENT 14 14 7 22 7 23
ROOT
ATOM      1  C   UNL     1      22.336   4.878  51.012  1.00  0.00    +0.091 C 
ATOM      2  C   UNL     1      21.554   4.098  51.921  1.00  0.00    +0.102 C 
ATOM      3  N   UNL     1      20.902   3.536  52.698  1.00  0.00    -0.192 NA
ATOM      4  C   UNL     1      23.603   4.549  50.676  1.00  0.00    +0.073 C 
ATOM      5  C   UNL     1      24.498   5.545  49.971  1.00  0.00    +0.259 C 
ATOM      6  O   UNL     1      24.174   6.582  49.429  1.00  0.00    -0.269 OA
ATOM      7  N   UNL     1      25.768   5.044  50.105  1.00  0.00    -0.306 N 
ATOM      8  C   UNL     1      25.766   3.800  50.713  1.00  0.00    +0.145 A 
ATOM      9  N   UNL     1      26.885   3.097  50.882  1.00  0.00    -0.218 NA
ATOM     10  C   UNL     1      26.671   1.879  51.384  1.00  0.00    +0.224 A 
ATOM     11  N   UNL     1      25.469   1.338  51.645  1.00  0.00    -0.236 NA
ATOM     12  C   UNL     1      24.361   2.094  51.416  1.00  0.00    +0.084 A 
ATOM     13  C   UNL     1      24.471   3.404  51.014  1.00  0.00    +0.058 A 
ATOM     14  H   UNL     1      26.603   5.485  49.753  1.00  0.00    +0.171 HD
ENDROOT
BRANCH   1  15
ATOM     15  C   UNL     1      21.665   6.127  50.577  1.00  0.00    +0.079 C 
ATOM     16  N   UNL     1      19.700   8.331  48.743  1.00  0.00    -0.192 NA
ATOM     17  C   UNL     1      20.215   7.341  49.063  1.00  0.00    +0.113 C 
ATOM     18  C   UNL     1      20.857   6.142  49.482  1.00  0.00    +0.153 C 
ATOM     19  C   UNL     1      20.600   4.964  48.724  1.00  0.00    +0.113 C 
ATOM     20  N   UNL     1      20.419   3.971  48.151  1.00  0.00    -0.192 NA
BRANCH  15  21
ATOM     21  N   UNL     1      21.946   7.237  51.374  1.00  0.00    -0.396 N 
ATOM     22  H   UNL     1      21.667   8.138  50.982  1.00  0.00    +0.156 HD
ATOM     23  H   UNL     1      21.626   7.158  52.339  1.00  0.00    +0.156 HD
ENDBRANCH  15  21
ENDBRANCH   1  15
BRANCH  12  24
ATOM     24  C   UNL     1      23.111   1.332  51.507  1.00  0.00    +0.002 A 
ATOM     25  C   UNL     1      22.222   1.282  50.420  1.00  0.00    +0.010 A 
ATOM     26  C   UNL     1      22.740   0.686  52.700  1.00  0.00    +0.026 A 
ATOM     27  C   UNL     1      21.016   0.579  50.508  1.00  0.00    +0.002 A 
ATOM     28  C   UNL     1      21.536  -0.017  52.780  1.00  0.00    +0.018 A 
ATOM     29  C   UNL     1      20.675  -0.078  51.688  1.00  0.00    +0.016 A 
ATOM     30 Br   UNL     1      21.076  -0.894  54.391  1.00  0.00    -0.051 Br
ENDBRANCH  12  24
TORSDOF 3
ENDMDL
MODEL 4
REMARK VINA RESULT:    -7.627      4.005      6.533
REMARK INTER + INTRA:          -9.725
REMARK INTER:                  -8.904
REMARK INTRA:                  -0.821
REMARK UNBOUND:                -0.983
REMARK SMILES N#CC(C#N)=C(N)C(C#N)=C1C(=O)Nc2ncnc(-c3cccc(Br)c3)c21
REMARK SMILES IDX 8 1 9 2 10 3 11 4 12 5 13 6 14 7 15 8 16 9 17 10 18 11 19 12
REMARK SMILES IDX 27 13 6 15 1 16 2 17 3 18 4 19 5 20 7 21 20 24 21 25 26 26
REMARK SMILES IDX 22 27 24 28 23 29 25 30
REMARK H PARENT 14 14 7 22 7 23
ROOT
ATOM      1  C   UNL     1      23.889   3.584  51.274  1.00  0.00    +0.091 C 
ATOM      2  C   UNL     1      22.709   3.640  52.081  1.00  0.00    +0.102 C 
ATOM      3  N   UNL     1      21.773   3.765  52.754  1.00  0.00    -0.192 NA
ATOM      4  C   UNL     1      24.789   2.580  51.371  1.00  0.00    +0.073 C 
ATOM      5  C   UNL     1      26.158   2.708  50.739  1.00  0.00    +0.259 C 
ATOM      6  O   UNL     1      26.527   3.527  49.923  1.00  0.00    -0.269 OA
ATOM      7  N   UNL     1      26.912   1.717  51.315  1.00  0.00    -0.306 N 
ATOM      8  C   UNL     1      26.153   0.915  52.150  1.00  0.00    +0.145 A 
ATOM      9  N   UNL     1      26.667  -0.151  52.761  1.00  0.00    -0.218 NA
ATOM     10  C   UNL     1      25.759  -0.862  53.433  1.00  0.00    +0.224 A 
ATOM     11  N   UNL     1      24.437  -0.615  53.468  1.00  0.00    -0.236 NA
ATOM     12  C   UNL     1      23.969   0.469  52.793  1.00  0.00    +0.084 A 
ATOM     13  C   UNL     1      24.831   1.338  52.166  1.00  0.00    +0.058 A 
ATOM     14  H   UNL     1      27.885   1.542  51.117  1.00  0.00    +0.171 HD
ENDROOT
BRANCH   1  15
ATOM     15  C   UNL     1      24.077   4.781  50.419  1.00  0.00    +0.079 C 
ATOM     16  N   UNL     1      24.010   6.880  47.649  1.00  0.00    -0.192 NA
ATOM     17  C   UNL     1      23.853   5.930  48.298  1.00  0.00    +0.113 C 
ATOM     18  C   UNL     1      23.670   4.783  49.119  1.00  0.00    +0.153 C 
ATOM     19  C   UNL     1      23.028   3.655  48.533  1.00  0.00    +0.113 C 
ATOM     20  N   UNL     1      22.500   2.711  48.112  1.00  0.00    -0.192 NA
BRANCH  15  21
ATOM     21  N   UNL     1      24.695   5.854  51.061  1.00  0.00    -0.396 N 
ATOM     22  H   UNL     1      25.651   6.051  50.760  1.00  0.00    +0.156 HD
ATOM     23  H   UNL     1      24.145   6.712  51.077  1.00  0.00    +0.156 HD
ENDBRANCH  15  21
ENDBRANCH   1  15
BRANCH  12  24
ATOM     24  C   UNL     1      22.506   0.506  52.701  1.00  0.00    +0.002 A 
ATOM     25  C   UNL     1      21.711   0.330  53.847  1.00  0.00    +0.010 A 
ATOM     26  C   UNL     1      21.860   0.653  51.461  1.00  0.00    +0.026 A 
ATOM     27  C   UNL     1      20.316   0.339  53.764  1.00  0.00    +0.002 A 
ATOM     28  C   UNL     1      20.466   0.664  51.385  1.00  0.00    +0.018 A 
ATOM     29  C   UNL     1      19.691   0.512  52.531  1.00  0.00    +0.016 A 
ATOM     30 Br   UNL     1      19.627   0.887  49.705  1.00  0.00    -0.051 Br
ENDBRANCH  12  24
TORSDOF 3
ENDMDL
MODEL 5
REMARK VINA RESULT:    -7.595      2.735      4.158
REMARK INTER + INTRA:          -9.689
REMARK INTER:                  -8.735
REMARK INTRA:                  -0.954
REMARK UNBOUND:                -0.983
REMARK SMILES N#CC(C#N)=C(N)C(C#N)=C1C(=O)Nc2ncnc(-c3cccc(Br)c3)c21
REMARK SMILES IDX 8 1 9 2 10 3 11 4 12 5 13 6 14 7 15 8 16 9 17 10 18 11 19 12
REMARK SMILES IDX 27 13 6 15 1 16 2 17 3 18 4 19 5 20 7 21 20 24 21 25 26 26
REMARK SMILES IDX 22 27 24 28 23 29 25 30
REMARK H PARENT 14 14 7 22 7 23
ROOT
ATOM      1  C   UNL     1      22.264   1.596  51.045  1.00  0.00    +0.091 C 
ATOM      2  C   UNL     1      22.790   2.121  49.823  1.00  0.00    +0.102 C 
ATOM      3  N   UNL     1      23.163   2.498  48.791  1.00  0.00    -0.192 NA
ATOM      4  C   UNL     1      23.053   1.109  52.027  1.00  0.00    +0.073 C 
ATOM      5  C   UNL     1      22.466   0.288  53.154  1.00  0.00    +0.259 C 
ATOM      6  O   UNL     1      21.296   0.170  53.457  1.00  0.00    -0.269 OA
ATOM      7  N   UNL     1      23.539  -0.330  53.744  1.00  0.00    -0.306 N 
ATOM      8  C   UNL     1      24.738   0.089  53.194  1.00  0.00    +0.145 A 
ATOM      9  N   UNL     1      25.913  -0.330  53.662  1.00  0.00    -0.218 NA
ATOM     10  C   UNL     1      26.955   0.266  53.079  1.00  0.00    +0.224 A 
ATOM     11  N   UNL     1      26.887   1.245  52.161  1.00  0.00    -0.236 NA
ATOM     12  C   UNL     1      25.657   1.656  51.751  1.00  0.00    +0.084 A 
ATOM     13  C   UNL     1      24.517   1.027  52.196  1.00  0.00    +0.058 A 
ATOM     14  H   UNL     1      23.483  -0.966  54.525  1.00  0.00    +0.171 HD
ENDROOT
BRANCH   1  15
ATOM     15  C   UNL     1      20.782   1.535  51.071  1.00  0.00    +0.079 C 
ATOM     16  N   UNL     1      17.465   2.464  51.543  1.00  0.00    -0.192 NA
ATOM     17  C   UNL     1      18.624   2.535  51.533  1.00  0.00    +0.113 C 
ATOM     18  C   UNL     1      20.045   2.595  51.505  1.00  0.00    +0.153 C 
ATOM     19  C   UNL     1      20.657   3.810  51.926  1.00  0.00    +0.113 C 
ATOM     20  N   UNL     1      21.210   4.779  52.247  1.00  0.00    -0.192 NA
BRANCH  15  21
ATOM     21  N   UNL     1      20.250   0.324  50.628  1.00  0.00    -0.396 N 
ATOM     22  H   UNL     1      19.230   0.257  50.663  1.00  0.00    +0.156 HD
ATOM     23  H   UNL     1      20.593   0.017  49.719  1.00  0.00    +0.156 HD
ENDBRANCH  15  21
ENDBRANCH   1  15
BRANCH  12  24
ATOM     24  C   UNL     1      25.695   2.876  50.938  1.00  0.00    +0.002 A 
ATOM     25  C   UNL     1      26.520   2.955  49.803  1.00  0.00    +0.010 A 
ATOM     26  C   UNL     1      24.959   4.016  51.305  1.00  0.00    +0.026 A 
ATOM     27  C   UNL     1      26.582   4.123  49.037  1.00  0.00    +0.002 A 
ATOM     28  C   UNL     1      25.023   5.179  50.535  1.00  0.00    +0.018 A 
ATOM     29  C   UNL     1      25.827   5.236  49.400  1.00  0.00    +0.016 A 
ATOM     30 Br   UNL     1      24.004   6.689  51.042  1.00  0.00    -0.051 Br
ENDBRANCH  12  24
TORSDOF 3
ENDMDL
MODEL 6
REMARK VINA RESULT:    -7.378      3.747      5.939
REMARK INTER + INTRA:          -9.439
REMARK INTER:                  -8.716
REMARK INTRA:                  -0.723
REMARK UNBOUND:                -0.983
REMARK SMILES N#CC(C#N)=C(N)C(C#N)=C1C(=O)Nc2ncnc(-c3cccc(Br)c3)c21
REMARK SMILES IDX 8 1 9 2 10 3 11 4 12 5 13 6 14 7 15 8 16 9 17 10 18 11 19 12
REMARK SMILES IDX 27 13 6 15 1 16 2 17 3 18 4 19 5 20 7 21 20 24 21 25 26 26
REMARK SMILES IDX 22 27 24 28 23 29 25 30
REMARK H PARENT 14 14 7 22 7 23
ROOT
ATOM      1  C   UNL     1      23.946   2.945  51.572  1.00  0.00    +0.091 C 
ATOM      2  C   UNL     1      25.157   2.245  51.273  1.00  0.00    +0.102 C 
ATOM      3  N   UNL     1      26.129   1.701  50.951  1.00  0.00    -0.192 NA
ATOM      4  C   UNL     1      22.929   2.379  52.259  1.00  0.00    +0.073 C 
ATOM      5  C   UNL     1      21.562   3.027  52.288  1.00  0.00    +0.259 C 
ATOM      6  O   UNL     1      21.266   4.155  51.953  1.00  0.00    -0.269 OA
ATOM      7  N   UNL     1      20.712   2.050  52.742  1.00  0.00    -0.306 N 
ATOM      8  C   UNL     1      21.398   0.903  53.106  1.00  0.00    +0.145 A 
ATOM      9  N   UNL     1      20.778  -0.148  53.639  1.00  0.00    -0.218 NA
ATOM     10  C   UNL     1      21.615  -1.113  54.026  1.00  0.00    +0.224 A 
ATOM     11  N   UNL     1      22.957  -1.055  53.973  1.00  0.00    -0.236 NA
ATOM     12  C   UNL     1      23.532   0.062  53.452  1.00  0.00    +0.084 A 
ATOM     13  C   UNL     1      22.762   1.066  52.913  1.00  0.00    +0.058 A 
ATOM     14  H   UNL     1      19.717   2.159  52.862  1.00  0.00    +0.171 HD
ENDROOT
BRANCH   1  15
ATOM     15  C   UNL     1      23.876   4.293  50.958  1.00  0.00    +0.079 C 
ATOM     16  N   UNL     1      23.394   6.810  48.609  1.00  0.00    -0.192 NA
ATOM     17  C   UNL     1      23.442   5.744  49.067  1.00  0.00    +0.113 C 
ATOM     18  C   UNL     1      23.505   4.451  49.658  1.00  0.00    +0.153 C 
ATOM     19  C   UNL     1      23.145   3.341  48.841  1.00  0.00    +0.113 C 
ATOM     20  N   UNL     1      22.851   2.401  48.227  1.00  0.00    -0.192 NA
BRANCH  15  21
ATOM     21  N   UNL     1      24.224   5.334  51.819  1.00  0.00    -0.396 N 
ATOM     22  H   UNL     1      24.132   5.127  52.815  1.00  0.00    +0.156 HD
ATOM     23  H   UNL     1      25.133   5.756  51.630  1.00  0.00    +0.156 HD
ENDBRANCH  15  21
ENDBRANCH   1  15
BRANCH  12  24
ATOM     24  C   UNL     1      24.982   0.118  53.660  1.00  0.00    +0.002 A 
ATOM     25  C   UNL     1      25.575   1.236  54.272  1.00  0.00    +0.010 A 
ATOM     26  C   UNL     1      25.822  -0.911  53.199  1.00  0.00    +0.026 A 
ATOM     27  C   UNL     1      26.960   1.308  54.451  1.00  0.00    +0.002 A 
ATOM     28  C   UNL     1      27.204  -0.834  53.383  1.00  0.00    +0.018 A 
ATOM     29  C   UNL     1      27.776   0.269  54.011  1.00  0.00    +0.016 A 
ATOM     30 Br   UNL     1      28.304  -2.244  52.772  1.00  0.00    -0.051 Br
ENDBRANCH  12  24
TORSDOF 3
ENDMDL
MODEL 7
REMARK VINA RESULT:    -7.227      3.586      6.004
REMARK INTER + INTRA:          -9.266
REMARK INTER:                  -8.538
REMARK INTRA:                  -0.728
REMARK UNBOUND:                -0.983
REMARK SMILES N#CC(C#N)=C(N)C(C#N)=C1C(=O)Nc2ncnc(-c3cccc(Br)c3)c21
REMARK SMILES IDX 8 1 9 2 10 3 11 4 12 5 13 6 14 7 15 8 16 9 17 10 18 11 19 12
REMARK SMILES IDX 27 13 6 15 1 16 2 17 3 18 4 19 5 20 7 21 20 24 21 25 26 26
REMARK SMILES IDX 22 27 24 28 23 29 25 30
REMARK H PARENT 14 14 7 22 7 23
ROOT
ATOM      1  C   UNL     1      21.782   4.246  51.322  1.00  0.00    +0.091 C 
ATOM      2  C   UNL     1      20.468   3.821  51.696  1.00  0.00    +0.102 C 
ATOM      3  N   UNL     1      19.392   3.552  52.034  1.00  0.00    -0.192 NA
ATOM      4  C   UNL     1      22.885   3.510  51.581  1.00  0.00    +0.073 C 
ATOM      5  C   UNL     1      24.265   4.118  51.457  1.00  0.00    +0.259 C 
ATOM      6  O   UNL     1      24.572   5.162  50.919  1.00  0.00    -0.269 OA
ATOM      7  N   UNL     1      25.099   3.252  52.117  1.00  0.00    -0.306 N 
ATOM      8  C   UNL     1      24.427   2.120  52.546  1.00  0.00    +0.145 A 
ATOM      9  N   UNL     1      25.057   1.113  53.149  1.00  0.00    -0.218 NA
ATOM     10  C   UNL     1      24.266   0.065  53.388  1.00  0.00    +0.224 A 
ATOM     11  N   UNL     1      22.979  -0.048  53.018  1.00  0.00    -0.236 NA
ATOM     12  C   UNL     1      22.403   1.001  52.371  1.00  0.00    +0.084 A 
ATOM     13  C   UNL     1      23.090   2.176  52.180  1.00  0.00    +0.058 A 
ATOM     14  H   UNL     1      26.093   3.379  52.230  1.00  0.00    +0.171 HD
ENDROOT
BRANCH   1  15
ATOM     15  C   UNL     1      21.818   5.608  50.737  1.00  0.00    +0.079 C 
ATOM     16  N   UNL     1      21.740   8.182  48.401  1.00  0.00    -0.192 NA
ATOM     17  C   UNL     1      21.710   7.105  48.835  1.00  0.00    +0.113 C 
ATOM     18  C   UNL     1      21.672   5.799  49.397  1.00  0.00    +0.153 C 
ATOM     19  C   UNL     1      21.457   4.709  48.505  1.00  0.00    +0.113 C 
ATOM     20  N   UNL     1      21.272   3.785  47.828  1.00  0.00    -0.192 NA
BRANCH  15  21
ATOM     21  N   UNL     1      22.014   6.628  51.669  1.00  0.00    -0.396 N 
ATOM     22  H   UNL     1      22.765   7.284  51.447  1.00  0.00    +0.156 HD
ATOM     23  H   UNL     1      21.168   7.135  51.927  1.00  0.00    +0.156 HD
ENDBRANCH  15  21
ENDBRANCH   1  15
BRANCH  12  24
ATOM     24  C   UNL     1      21.086   0.682  51.808  1.00  0.00    +0.002 A 
ATOM     25  C   UNL     1      20.793   0.968  50.464  1.00  0.00    +0.010 A 
ATOM     26  C   UNL     1      20.066   0.143  52.612  1.00  0.00    +0.026 A 
ATOM     27  C   UNL     1      19.532   0.690  49.928  1.00  0.00    +0.002 A 
ATOM     28  C   UNL     1      18.809  -0.134  52.069  1.00  0.00    +0.018 A 
ATOM     29  C   UNL     1      18.539   0.132  50.730  1.00  0.00    +0.016 A 
ATOM     30 Br   UNL     1      17.464  -0.880  53.169  1.00  0.00    -0.051 Br
ENDBRANCH  12  24
TORSDOF 3
ENDMDL
MODEL 8
REMARK VINA RESULT:    -6.978      3.493      6.778
REMARK INTER + INTRA:          -8.981
REMARK INTER:                  -8.354
REMARK INTRA:                  -0.627
REMARK UNBOUND:                -0.983
REMARK SMILES N#CC(C#N)=C(N)C(C#N)=C1C(=O)Nc2ncnc(-c3cccc(Br)c3)c21
REMARK SMILES IDX 8 1 9 2 10 3 11 4 12 5 13 6 14 7 15 8 16 9 17 10 18 11 19 12
REMARK SMILES IDX 27 13 6 15 1 16 2 17 3 18 4 19 5 20 7 21 20 24 21 25 26 26
REMARK SMILES IDX 22 27 24 28 23 29 25 30
REMARK H PARENT 14 14 7 22 7 23
ROOT
ATOM      1  C   UNL     1      24.299   2.261  52.761  1.00  0.00    +0.091 C 
ATOM      2  C   UNL     1      23.947   3.599  52.397  1.00  0.00    +0.102 C 
ATOM      3  N   UNL     1      23.694   4.708  52.173  1.00  0.00    -0.192 NA
ATOM      4  C   UNL     1      23.419   1.237  52.709  1.00  0.00    +0.073 C 
ATOM      5  C   UNL     1      23.727  -0.081  53.386  1.00  0.00    +0.259 C 
ATOM      6  O   UNL     1      24.796  -0.467  53.811  1.00  0.00    -0.269 OA
ATOM      7  N   UNL     1      22.525  -0.739  53.452  1.00  0.00    -0.306 N 
ATOM      8  C   UNL     1      21.522  -0.041  52.801  1.00  0.00    +0.145 A 
ATOM      9  N   UNL     1      20.288  -0.528  52.682  1.00  0.00    -0.218 NA
ATOM     10  C   UNL     1      19.491   0.233  51.929  1.00  0.00    +0.224 A 
ATOM     11  N   UNL     1      19.860   1.349  51.276  1.00  0.00    -0.236 NA
ATOM     12  C   UNL     1      21.145   1.776  51.408  1.00  0.00    +0.084 A 
ATOM     13  C   UNL     1      22.018   1.134  52.255  1.00  0.00    +0.058 A 
ATOM     14  H   UNL     1      22.385  -1.648  53.865  1.00  0.00    +0.171 HD
ENDROOT
BRANCH   1  15
ATOM     15  C   UNL     1      25.674   2.140  53.303  1.00  0.00    +0.079 C 
ATOM     16  N   UNL     1      29.144   1.986  53.451  1.00  0.00    -0.192 NA
ATOM     17  C   UNL     1      28.077   2.082  53.003  1.00  0.00    +0.113 C 
ATOM     18  C   UNL     1      26.759   2.201  52.483  1.00  0.00    +0.153 C 
ATOM     19  C   UNL     1      26.625   2.409  51.079  1.00  0.00    +0.113 C 
ATOM     20  N   UNL     1      26.456   2.590  49.946  1.00  0.00    -0.192 NA
BRANCH  15  21
ATOM     21  N   UNL     1      25.732   1.957  54.685  1.00  0.00    -0.396 N 
ATOM     22  H   UNL     1      25.484   2.776  55.245  1.00  0.00    +0.156 HD
ATOM     23  H   UNL     1      25.235   1.134  55.026  1.00  0.00    +0.156 HD
ENDBRANCH  15  21
ENDBRANCH   1  15
BRANCH  12  24
ATOM     24  C   UNL     1      21.497   2.851  50.476  1.00  0.00    +0.002 A 
ATOM     25  C   UNL     1      22.524   2.675  49.533  1.00  0.00    +0.010 A 
ATOM     26  C   UNL     1      20.863   4.105  50.542  1.00  0.00    +0.026 A 
ATOM     27  C   UNL     1      22.882   3.705  48.658  1.00  0.00    +0.002 A 
ATOM     28  C   UNL     1      21.224   5.129  49.664  1.00  0.00    +0.018 A 
ATOM     29  C   UNL     1      22.227   4.933  48.719  1.00  0.00    +0.016 A 
ATOM     30 Br   UNL     1      20.337   6.796  49.763  1.00  0.00    -0.051 Br
ENDBRANCH  12  24
TORSDOF 3
ENDMDL
MODEL 9
REMARK VINA RESULT:    -6.829      3.408      6.489
REMARK INTER + INTRA:          -8.810
REMARK INTER:                  -7.861
REMARK INTRA:                  -0.949
REMARK UNBOUND:                -0.983
REMARK SMILES N#CC(C#N)=C(N)C(C#N)=C1C(=O)Nc2ncnc(-c3cccc(Br)c3)c21
REMARK SMILES IDX 8 1 9 2 10 3 11 4 12 5 13 6 14 7 15 8 16 9 17 10 18 11 19 12
REMARK SMILES IDX 27 13 6 15 1 16 2 17 3 18 4 19 5 20 7 21 20 24 21 25 26 26
REMARK SMILES IDX 22 27 24 28 23 29 25 30
REMARK H PARENT 14 14 7 22 7 23
ROOT
ATOM      1  C   UNL     1      22.812   2.479  51.729  1.00  0.00    +0.091 C 
ATOM      2  C   UNL     1      23.224   3.785  52.144  1.00  0.00    +0.102 C 
ATOM      3  N   UNL     1      23.524   4.827  52.555  1.00  0.00    -0.192 NA
ATOM      4  C   UNL     1      22.119   2.263  50.589  1.00  0.00    +0.073 C 
ATOM      5  C   UNL     1      21.439   0.935  50.339  1.00  0.00    +0.259 C 
ATOM      6  O   UNL     1      21.605  -0.109  50.936  1.00  0.00    -0.269 OA
ATOM      7  N   UNL     1      20.560   1.170  49.313  1.00  0.00    -0.306 N 
ATOM      8  C   UNL     1      20.685   2.456  48.815  1.00  0.00    +0.145 A 
ATOM      9  N   UNL     1      19.977   2.878  47.769  1.00  0.00    -0.218 NA
ATOM     10  C   UNL     1      20.313   4.106  47.366  1.00  0.00    +0.224 A 
ATOM     11  N   UNL     1      21.303   4.857  47.880  1.00  0.00    -0.236 NA
ATOM     12  C   UNL     1      22.015   4.354  48.924  1.00  0.00    +0.084 A 
ATOM     13  C   UNL     1      21.675   3.150  49.496  1.00  0.00    +0.058 A 
ATOM     14  H   UNL     1      19.938   0.483  48.916  1.00  0.00    +0.171 HD
ENDROOT
BRANCH   1  15
ATOM     15  C   UNL     1      23.118   1.421  52.722  1.00  0.00    +0.079 C 
ATOM     16  N   UNL     1      24.876  -0.951  54.557  1.00  0.00    -0.192 NA
ATOM     17  C   UNL     1      24.661  -0.124  53.770  1.00  0.00    +0.113 C 
ATOM     18  C   UNL     1      24.369   0.894  52.820  1.00  0.00    +0.153 C 
ATOM     19  C   UNL     1      25.440   1.348  51.998  1.00  0.00    +0.113 C 
ATOM     20  N   UNL     1      26.276   1.765  51.309  1.00  0.00    -0.192 NA
BRANCH  15  21
ATOM     21  N   UNL     1      22.029   1.038  53.505  1.00  0.00    -0.396 N 
ATOM     22  H   UNL     1      21.584   1.791  54.033  1.00  0.00    +0.156 HD
ATOM     23  H   UNL     1      21.324   0.489  53.013  1.00  0.00    +0.156 HD
ENDBRANCH  15  21
ENDBRANCH   1  15
BRANCH  12  24
ATOM     24  C   UNL     1      23.208   5.143  49.244  1.00  0.00    +0.002 A 
ATOM     25  C   UNL     1      23.090   6.455  49.734  1.00  0.00    +0.010 A 
ATOM     26  C   UNL     1      24.499   4.634  49.010  1.00  0.00    +0.026 A 
ATOM     27  C   UNL     1      24.224   7.222  50.017  1.00  0.00    +0.002 A 
ATOM     28  C   UNL     1      25.627   5.405  49.298  1.00  0.00    +0.018 A 
ATOM     29  C   UNL     1      25.495   6.695  49.805  1.00  0.00    +0.016 A 
ATOM     30 Br   UNL     1      27.348   4.685  48.995  1.00  0.00    -0.051 Br
ENDBRANCH  12  24
TORSDOF 3
ENDMDL
