REMARK SMILES Cc1cc(C)c(-c2ccccc2)[nH]1
REMARK SMILES IDX 1 1 2 2 3 3 4 4 5 5 6 6 13 7 7 9 8 10 12 11 9 12 11 13 10 14
REMARK H PARENT 13 8
ROOT
ATOM      1  C   UNL     1      -3.671  -1.125  -1.061  1.00  0.00    +0.064 C 
ATOM      2  C   UNL     1      -2.524  -0.374  -0.499  1.00  0.00    +0.012 A 
ATOM      3  C   UNL     1      -2.470   0.826   0.175  1.00  0.00    +0.026 A 
ATOM      4  C   UNL     1      -1.108   1.095   0.493  1.00  0.00    -0.025 A 
ATOM      5  C   UNL     1      -0.610   2.286   1.232  1.00  0.00    +0.047 C 
ATOM      6  C   UNL     1      -0.357   0.037  -0.005  1.00  0.00    +0.049 A 
ATOM      7  N   UNL     1      -1.238  -0.840  -0.599  1.00  0.00    -0.358 N 
ATOM      8  H   UNL     1      -0.962  -1.696  -1.061  1.00  0.00    +0.166 HD
ENDROOT
BRANCH   6   9
ATOM      9  C   UNL     1       1.082  -0.215   0.012  1.00  0.00    -0.002 A 
ATOM     10  C   UNL     1       1.977   0.745  -0.476  1.00  0.00    +0.010 A 
ATOM     11  C   UNL     1       1.587  -1.423   0.509  1.00  0.00    +0.010 A 
ATOM     12  C   UNL     1       3.352   0.502  -0.468  1.00  0.00    +0.001 A 
ATOM     13  C   UNL     1       2.963  -1.666   0.518  1.00  0.00    +0.001 A 
ATOM     14  C   UNL     1       3.844  -0.704   0.029  1.00  0.00    +0.000 A 
ENDBRANCH   6   9
TORSDOF 1
