REMARK SMILES Cc1cccc(C=C2C(=O)N(C)c3ncnc(Nc4ccccc4)c32)c1
REMARK SMILES IDX 7 1 8 2 9 3 10 4 11 5 12 6 13 7 14 8 15 9 16 10 17 11 25 12
REMARK SMILES IDX 6 13 2 14 3 15 26 16 4 17 5 18 1 19 18 20 19 22 20 23 24 24
REMARK SMILES IDX 21 25 23 26 22 27
REMARK H PARENT 18 21
ROOT
ATOM      1  C   UNL     1       1.006  -0.030   0.176  1.00  0.00    +0.023 C 
ATOM      2  C   UNL     1       0.384   1.141   0.393  1.00  0.00    +0.055 C 
ATOM      3  C   UNL     1       1.030   2.446   0.799  1.00  0.00    +0.260 C 
ATOM      4  O   UNL     1       2.193   2.644   1.090  1.00  0.00    -0.269 OA
ATOM      5  N   UNL     1       0.000   3.372   0.762  1.00  0.00    -0.295 N 
ATOM      6  C   UNL     1       0.125   4.774   1.050  1.00  0.00    +0.155 C 
ATOM      7  C   UNL     1      -1.215   2.782   0.402  1.00  0.00    +0.148 A 
ATOM      8  N   UNL     1      -2.367   3.447   0.298  1.00  0.00    -0.218 NA
ATOM      9  C   UNL     1      -3.399   2.669  -0.039  1.00  0.00    +0.226 A 
ATOM     10  N   UNL     1      -3.361   1.339  -0.247  1.00  0.00    -0.218 NA
ATOM     11  C   UNL     1      -2.177   0.703  -0.114  1.00  0.00    +0.144 A 
ATOM     12  C   UNL     1      -1.043   1.423   0.194  1.00  0.00    +0.073 A 
ENDROOT
BRANCH   1  13
ATOM     13  C   UNL     1       2.434  -0.319   0.350  1.00  0.00    -0.025 A 
ATOM     14  C   UNL     1       4.539  -1.079  -0.618  1.00  0.00    -0.051 A 
ATOM     15  C   UNL     1       5.137  -0.993   0.644  1.00  0.00    +0.003 A 
ATOM     16  C   UNL     1       3.181  -0.756  -0.752  1.00  0.00    +0.011 A 
ATOM     17  C   UNL     1       4.397  -0.569   1.748  1.00  0.00    +0.001 A 
ATOM     18  C   UNL     1       3.049  -0.236   1.604  1.00  0.00    +0.008 A 
ATOM     19  C   UNL     1       5.324  -1.558  -1.802  1.00  0.00    +0.044 C 
ENDBRANCH   1  13
BRANCH  11  20
ATOM     20  N   UNL     1      -2.104  -0.701  -0.265  1.00  0.00    -0.340 N 
ATOM     21  H   UNL     1      -1.669  -1.102   0.560  1.00  0.00    +0.168 HD
BRANCH  20  22
ATOM     22  C   UNL     1      -3.061  -1.586  -0.813  1.00  0.00    +0.040 A 
ATOM     23  C   UNL     1      -3.001  -2.946  -0.470  1.00  0.00    +0.026 A 
ATOM     24  C   UNL     1      -3.989  -1.197  -1.786  1.00  0.00    +0.026 A 
ATOM     25  C   UNL     1      -3.883  -3.875  -1.034  1.00  0.00    +0.002 A 
ATOM     26  C   UNL     1      -4.873  -2.123  -2.351  1.00  0.00    +0.002 A 
ATOM     27  C   UNL     1      -4.824  -3.461  -1.971  1.00  0.00    +0.000 A 
ENDBRANCH  20  22
ENDBRANCH  11  20
TORSDOF 3
