MODEL 1
REMARK VINA RESULT:    -7.778      0.000      0.000
REMARK INTER + INTRA:         -10.030
REMARK INTER:                  -8.914
REMARK INTRA:                  -1.116
REMARK UNBOUND:                -1.116
REMARK SMILES Cc1cc(C)c(-c2ncnc3c2C(=C(C#N)C(N)=C(C#N)C#N)C(=O)N3)[nH]1
REMARK SMILES IDX 7 1 8 2 9 3 10 4 11 5 12 6 13 7 14 8 15 9 16 10 24 11 25 12
REMARK SMILES IDX 26 13 6 15 2 16 3 17 27 18 4 19 1 20 5 22 17 23 19 24 20 25
REMARK SMILES IDX 22 26 21 27 23 28 18 29
REMARK H PARENT 26 14 27 21 18 30 18 31
ROOT
ATOM      1  C   UNL     1      24.686   2.372  51.250  1.00  0.00    +0.100 A 
ATOM      2  N   UNL     1      26.006   2.585  51.042  1.00  0.00    -0.234 NA
ATOM      3  C   UNL     1      26.870   1.785  51.693  1.00  0.00    +0.225 A 
ATOM      4  N   UNL     1      26.543   0.765  52.496  1.00  0.00    -0.218 NA
ATOM      5  C   UNL     1      25.230   0.634  52.672  1.00  0.00    +0.145 A 
ATOM      6  C   UNL     1      24.237   1.447  52.155  1.00  0.00    +0.059 A 
ATOM      7  C   UNL     1      22.958   0.905  52.628  1.00  0.00    +0.073 C 
ATOM      8  C   UNL     1      21.721   1.438  52.719  1.00  0.00    +0.091 C 
ATOM      9  C   UNL     1      21.462   2.824  52.469  1.00  0.00    +0.102 C 
ATOM     10  N   UNL     1      21.213   3.948  52.338  1.00  0.00    -0.192 NA
ATOM     11  C   UNL     1      23.293  -0.422  53.267  1.00  0.00    +0.259 C 
ATOM     12  O   UNL     1      22.520  -1.270  53.664  1.00  0.00    -0.269 OA
ATOM     13  N   UNL     1      24.667  -0.450  53.329  1.00  0.00    -0.306 N 
ATOM     14  H   UNL     1      25.214  -1.214  53.697  1.00  0.00    +0.171 HD
ENDROOT
BRANCH   1  15
ATOM     15  C   UNL     1      23.831   3.078  50.305  1.00  0.00    +0.068 A 
ATOM     16  C   UNL     1      22.416   3.323  48.561  1.00  0.00    +0.012 A 
ATOM     17  C   UNL     1      22.711   4.580  49.037  1.00  0.00    +0.026 A 
ATOM     18  N   UNL     1      23.124   2.423  49.317  1.00  0.00    -0.357 N 
ATOM     19  C   UNL     1      23.617   4.439  50.124  1.00  0.00    -0.024 A 
ATOM     20  C   UNL     1      21.535   2.883  47.451  1.00  0.00    +0.064 C 
ATOM     21  H   UNL     1      23.123   1.422  49.156  1.00  0.00    +0.166 HD
ATOM     22  C   UNL     1      24.203   5.549  50.923  1.00  0.00    +0.047 C 
ENDBRANCH   1  15
BRANCH   8  23
ATOM     23  C   UNL     1      20.531   0.659  53.132  1.00  0.00    +0.079 C 
ATOM     24  C   UNL     1      19.653   0.227  52.185  1.00  0.00    +0.153 C 
ATOM     25  C   UNL     1      19.866   0.511  50.803  1.00  0.00    +0.113 C 
ATOM     26  C   UNL     1      18.499  -0.525  52.537  1.00  0.00    +0.113 C 
ATOM     27  N   UNL     1      20.135   0.783  49.707  1.00  0.00    -0.192 NA
ATOM     28  N   UNL     1      17.564  -1.142  52.841  1.00  0.00    -0.192 NA
BRANCH  23  29
ATOM     29  N   UNL     1      20.411   0.431  54.501  1.00  0.00    -0.396 N 
ATOM     30  H   UNL     1      20.863  -0.418  54.845  1.00  0.00    +0.156 HD
ATOM     31  H   UNL     1      20.655   1.228  55.089  1.00  0.00    +0.156 HD
ENDBRANCH  23  29
ENDBRANCH   8  23
TORSDOF 3
ENDMDL
MODEL 2
REMARK VINA RESULT:    -7.634      2.294      5.067
REMARK INTER + INTRA:          -9.866
REMARK INTER:                  -8.635
REMARK INTRA:                  -1.231
REMARK UNBOUND:                -1.116
REMARK SMILES Cc1cc(C)c(-c2ncnc3c2C(=C(C#N)C(N)=C(C#N)C#N)C(=O)N3)[nH]1
REMARK SMILES IDX 7 1 8 2 9 3 10 4 11 5 12 6 13 7 14 8 15 9 16 10 24 11 25 12
REMARK SMILES IDX 26 13 6 15 2 16 3 17 27 18 4 19 1 20 5 22 17 23 19 24 20 25
REMARK SMILES IDX 22 26 21 27 23 28 18 29
REMARK H PARENT 26 14 27 21 18 30 18 31
ROOT
ATOM      1  C   UNL     1      23.487   3.154  49.478  1.00  0.00    +0.100 A 
ATOM      2  N   UNL     1      22.649   3.160  48.416  1.00  0.00    -0.234 NA
ATOM      3  C   UNL     1      21.668   2.240  48.399  1.00  0.00    +0.225 A 
ATOM      4  N   UNL     1      21.417   1.343  49.360  1.00  0.00    -0.218 NA
ATOM      5  C   UNL     1      22.298   1.380  50.357  1.00  0.00    +0.145 A 
ATOM      6  C   UNL     1      23.411   2.196  50.453  1.00  0.00    +0.059 A 
ATOM      7  C   UNL     1      24.068   1.868  51.724  1.00  0.00    +0.073 C 
ATOM      8  C   UNL     1      25.316   2.090  52.187  1.00  0.00    +0.091 C 
ATOM      9  C   UNL     1      26.359   2.617  51.361  1.00  0.00    +0.102 C 
ATOM     10  N   UNL     1      27.251   2.982  50.716  1.00  0.00    -0.192 NA
ATOM     11  C   UNL     1      23.106   0.960  52.454  1.00  0.00    +0.259 C 
ATOM     12  O   UNL     1      23.183   0.564  53.599  1.00  0.00    -0.269 OA
ATOM     13  N   UNL     1      22.135   0.654  51.528  1.00  0.00    -0.306 N 
ATOM     14  H   UNL     1      21.332   0.070  51.704  1.00  0.00    +0.171 HD
ENDROOT
BRANCH   1  15
ATOM     15  C   UNL     1      24.327   4.342  49.557  1.00  0.00    +0.068 A 
ATOM     16  C   UNL     1      26.082   5.684  49.086  1.00  0.00    +0.012 A 
ATOM     17  C   UNL     1      25.338   6.302  50.065  1.00  0.00    +0.026 A 
ATOM     18  N   UNL     1      25.478   4.484  48.808  1.00  0.00    -0.357 N 
ATOM     19  C   UNL     1      24.240   5.455  50.384  1.00  0.00    -0.024 A 
ATOM     20  C   UNL     1      27.320   6.111  48.388  1.00  0.00    +0.064 C 
ATOM     21  H   UNL     1      25.840   3.806  48.148  1.00  0.00    +0.166 HD
ATOM     22  C   UNL     1      23.190   5.733  51.401  1.00  0.00    +0.047 C 
ENDBRANCH   1  15
BRANCH   8  23
ATOM     23  C   UNL     1      25.737   1.763  53.569  1.00  0.00    +0.079 C 
ATOM     24  C   UNL     1      26.338   0.568  53.820  1.00  0.00    +0.153 C 
ATOM     25  C   UNL     1      26.571  -0.371  52.771  1.00  0.00    +0.113 C 
ATOM     26  C   UNL     1      26.759   0.214  55.131  1.00  0.00    +0.113 C 
ATOM     27  N   UNL     1      26.726  -1.060  51.848  1.00  0.00    -0.192 NA
ATOM     28  N   UNL     1      27.102  -0.057  56.207  1.00  0.00    -0.192 NA
BRANCH  23  29
ATOM     29  N   UNL     1      25.470   2.742  54.523  1.00  0.00    -0.396 N 
ATOM     30  H   UNL     1      24.712   3.387  54.289  1.00  0.00    +0.156 HD
ATOM     31  H   UNL     1      25.358   2.391  55.474  1.00  0.00    +0.156 HD
ENDBRANCH  23  29
ENDBRANCH   8  23
TORSDOF 3
ENDMDL
MODEL 3
REMARK VINA RESULT:    -7.584      2.267      5.876
REMARK INTER + INTRA:          -9.809
REMARK INTER:                  -8.865
REMARK INTRA:                  -0.944
REMARK UNBOUND:                -1.116
REMARK SMILES Cc1cc(C)c(-c2ncnc3c2C(=C(C#N)C(N)=C(C#N)C#N)C(=O)N3)[nH]1
REMARK SMILES IDX 7 1 8 2 9 3 10 4 11 5 12 6 13 7 14 8 15 9 16 10 24 11 25 12
REMARK SMILES IDX 26 13 6 15 2 16 3 17 27 18 4 19 1 20 5 22 17 23 19 24 20 25
REMARK SMILES IDX 22 26 21 27 23 28 18 29
REMARK H PARENT 26 14 27 21 18 30 18 31
ROOT
ATOM      1  C   UNL     1      21.998   0.431  53.106  1.00  0.00    +0.100 A 
ATOM      2  N   UNL     1      20.706   0.033  53.157  1.00  0.00    -0.234 NA
ATOM      3  C   UNL     1      20.409  -0.994  53.974  1.00  0.00    +0.225 A 
ATOM      4  N   UNL     1      21.269  -1.632  54.777  1.00  0.00    -0.218 NA
ATOM      5  C   UNL     1      22.523  -1.202  54.652  1.00  0.00    +0.145 A 
ATOM      6  C   UNL     1      22.987  -0.235  53.779  1.00  0.00    +0.059 A 
ATOM      7  C   UNL     1      24.431  -0.114  54.011  1.00  0.00    +0.073 C 
ATOM      8  C   UNL     1      25.432   0.404  53.268  1.00  0.00    +0.091 C 
ATOM      9  C   UNL     1      25.238   0.843  51.919  1.00  0.00    +0.102 C 
ATOM     10  N   UNL     1      25.146   1.153  50.806  1.00  0.00    -0.192 NA
ATOM     11  C   UNL     1      24.711  -0.928  55.251  1.00  0.00    +0.259 C 
ATOM     12  O   UNL     1      25.749  -0.991  55.879  1.00  0.00    -0.269 OA
ATOM     13  N   UNL     1      23.541  -1.609  55.502  1.00  0.00    -0.306 N 
ATOM     14  H   UNL     1      23.392  -2.238  56.276  1.00  0.00    +0.171 HD
ENDROOT
BRANCH   1  15
ATOM     15  C   UNL     1      22.181   1.709  52.431  1.00  0.00    +0.068 A 
ATOM     16  C   UNL     1      22.721   3.893  52.222  1.00  0.00    +0.012 A 
ATOM     17  C   UNL     1      22.224   3.470  51.010  1.00  0.00    +0.026 A 
ATOM     18  N   UNL     1      22.662   2.827  53.083  1.00  0.00    -0.357 N 
ATOM     19  C   UNL     1      21.863   2.100  51.136  1.00  0.00    -0.024 A 
ATOM     20  C   UNL     1      23.241   5.214  52.654  1.00  0.00    +0.064 C 
ATOM     21  H   UNL     1      22.930   2.871  54.060  1.00  0.00    +0.166 HD
ATOM     22  C   UNL     1      21.273   1.250  50.066  1.00  0.00    +0.047 C 
ENDBRANCH   1  15
BRANCH   8  23
ATOM     23  C   UNL     1      26.826   0.521  53.755  1.00  0.00    +0.079 C 
ATOM     24  C   UNL     1      27.724  -0.455  53.449  1.00  0.00    +0.153 C 
ATOM     25  C   UNL     1      27.343  -1.584  52.664  1.00  0.00    +0.113 C 
ATOM     26  C   UNL     1      29.072  -0.383  53.895  1.00  0.00    +0.113 C 
ATOM     27  N   UNL     1      26.937  -2.454  52.011  1.00  0.00    -0.192 NA
ATOM     28  N   UNL     1      30.171  -0.306  54.263  1.00  0.00    -0.192 NA
BRANCH  23  29
ATOM     29  N   UNL     1      27.102   1.658  54.510  1.00  0.00    -0.396 N 
ATOM     30  H   UNL     1      28.021   2.076  54.353  1.00  0.00    +0.156 HD
ATOM     31  H   UNL     1      26.376   2.374  54.484  1.00  0.00    +0.156 HD
ENDBRANCH  23  29
ENDBRANCH   8  23
TORSDOF 3
ENDMDL
MODEL 4
REMARK VINA RESULT:    -7.240      2.115      3.876
REMARK INTER + INTRA:          -9.414
REMARK INTER:                  -8.685
REMARK INTRA:                  -0.729
REMARK UNBOUND:                -1.116
REMARK SMILES Cc1cc(C)c(-c2ncnc3c2C(=C(C#N)C(N)=C(C#N)C#N)C(=O)N3)[nH]1
REMARK SMILES IDX 7 1 8 2 9 3 10 4 11 5 12 6 13 7 14 8 15 9 16 10 24 11 25 12
REMARK SMILES IDX 26 13 6 15 2 16 3 17 27 18 4 19 1 20 5 22 17 23 19 24 20 25
REMARK SMILES IDX 22 26 21 27 23 28 18 29
REMARK H PARENT 26 14 27 21 18 30 18 31
ROOT
ATOM      1  C   UNL     1      22.605   0.549  53.344  1.00  0.00    +0.100 A 
ATOM      2  N   UNL     1      23.384  -0.205  54.154  1.00  0.00    -0.234 NA
ATOM      3  C   UNL     1      22.789  -1.208  54.824  1.00  0.00    +0.225 A 
ATOM      4  N   UNL     1      21.501  -1.560  54.729  1.00  0.00    -0.218 NA
ATOM      5  C   UNL     1      20.794  -0.757  53.935  1.00  0.00    +0.145 A 
ATOM      6  C   UNL     1      21.250   0.369  53.273  1.00  0.00    +0.059 A 
ATOM      7  C   UNL     1      20.106   0.915  52.533  1.00  0.00    +0.073 C 
ATOM      8  C   UNL     1      19.867   2.131  51.995  1.00  0.00    +0.091 C 
ATOM      9  C   UNL     1      20.734   3.249  52.211  1.00  0.00    +0.102 C 
ATOM     10  N   UNL     1      21.369   4.199  52.407  1.00  0.00    -0.192 NA
ATOM     11  C   UNL     1      19.019  -0.126  52.642  1.00  0.00    +0.259 C 
ATOM     12  O   UNL     1      17.952  -0.149  52.061  1.00  0.00    -0.269 OA
ATOM     13  N   UNL     1      19.485  -1.032  53.567  1.00  0.00    -0.306 N 
ATOM     14  H   UNL     1      18.995  -1.863  53.861  1.00  0.00    +0.171 HD
ENDROOT
BRANCH   1  15
ATOM     15  C   UNL     1      23.366   1.414  52.453  1.00  0.00    +0.068 A 
ATOM     16  C   UNL     1      23.920   2.432  50.513  1.00  0.00    +0.012 A 
ATOM     17  C   UNL     1      24.866   2.780  51.450  1.00  0.00    +0.026 A 
ATOM     18  N   UNL     1      23.034   1.580  51.124  1.00  0.00    -0.357 N 
ATOM     19  C   UNL     1      24.538   2.129  52.672  1.00  0.00    -0.024 A 
ATOM     20  C   UNL     1      23.772   2.818  49.088  1.00  0.00    +0.064 C 
ATOM     21  H   UNL     1      22.254   1.139  50.650  1.00  0.00    +0.166 HD
ATOM     22  C   UNL     1      25.304   2.220  53.944  1.00  0.00    +0.047 C 
ENDBRANCH   1  15
BRANCH   8  23
ATOM     23  C   UNL     1      18.668   2.434  51.180  1.00  0.00    +0.079 C 
ATOM     24  C   UNL     1      18.698   2.206  49.838  1.00  0.00    +0.153 C 
ATOM     25  C   UNL     1      19.864   1.676  49.209  1.00  0.00    +0.113 C 
ATOM     26  C   UNL     1      17.569   2.482  49.018  1.00  0.00    +0.113 C 
ATOM     27  N   UNL     1      20.854   1.233  48.795  1.00  0.00    -0.192 NA
ATOM     28  N   UNL     1      16.637   2.707  48.364  1.00  0.00    -0.192 NA
BRANCH  23  29
ATOM     29  N   UNL     1      17.580   2.944  51.883  1.00  0.00    -0.396 N 
ATOM     30  H   UNL     1      17.376   3.932  51.719  1.00  0.00    +0.156 HD
ATOM     31  H   UNL     1      16.728   2.388  51.813  1.00  0.00    +0.156 HD
ENDBRANCH  23  29
ENDBRANCH   8  23
TORSDOF 3
ENDMDL
MODEL 5
REMARK VINA RESULT:    -7.155      2.028      5.098
REMARK INTER + INTRA:          -9.317
REMARK INTER:                  -8.244
REMARK INTRA:                  -1.073
REMARK UNBOUND:                -1.116
REMARK SMILES Cc1cc(C)c(-c2ncnc3c2C(=C(C#N)C(N)=C(C#N)C#N)C(=O)N3)[nH]1
REMARK SMILES IDX 7 1 8 2 9 3 10 4 11 5 12 6 13 7 14 8 15 9 16 10 24 11 25 12
REMARK SMILES IDX 26 13 6 15 2 16 3 17 27 18 4 19 1 20 5 22 17 23 19 24 20 25
REMARK SMILES IDX 22 26 21 27 23 28 18 29
REMARK H PARENT 26 14 27 21 18 30 18 31
ROOT
ATOM      1  C   UNL     1      22.442   2.472  50.527  1.00  0.00    +0.100 A 
ATOM      2  N   UNL     1      21.277   2.338  49.852  1.00  0.00    -0.234 NA
ATOM      3  C   UNL     1      20.524   1.258  50.130  1.00  0.00    +0.225 A 
ATOM      4  N   UNL     1      20.801   0.324  51.048  1.00  0.00    -0.218 NA
ATOM      5  C   UNL     1      21.974   0.509  51.650  1.00  0.00    +0.145 A 
ATOM      6  C   UNL     1      22.894   1.509  51.389  1.00  0.00    +0.059 A 
ATOM      7  C   UNL     1      24.022   1.293  52.301  1.00  0.00    +0.073 C 
ATOM      8  C   UNL     1      25.300   1.729  52.287  1.00  0.00    +0.091 C 
ATOM      9  C   UNL     1      25.857   2.439  51.176  1.00  0.00    +0.102 C 
ATOM     10  N   UNL     1      26.370   2.961  50.277  1.00  0.00    -0.192 NA
ATOM     11  C   UNL     1      23.565   0.224  53.265  1.00  0.00    +0.259 C 
ATOM     12  O   UNL     1      24.130  -0.160  54.270  1.00  0.00    -0.269 OA
ATOM     13  N   UNL     1      22.381  -0.243  52.743  1.00  0.00    -0.306 N 
ATOM     14  H   UNL     1      21.809  -0.961  53.159  1.00  0.00    +0.171 HD
ENDROOT
BRANCH   1  15
ATOM     15  C   UNL     1      23.046   3.790  50.379  1.00  0.00    +0.068 A 
ATOM     16  C   UNL     1      24.105   5.486  49.327  1.00  0.00    +0.012 A 
ATOM     17  C   UNL     1      23.931   5.856  50.641  1.00  0.00    +0.026 A 
ATOM     18  N   UNL     1      23.593   4.221  49.187  1.00  0.00    -0.357 N 
ATOM     19  C   UNL     1      23.282   4.786  51.318  1.00  0.00    -0.024 A 
ATOM     20  C   UNL     1      24.719   6.208  48.185  1.00  0.00    +0.064 C 
ATOM     21  H   UNL     1      23.625   3.689  48.325  1.00  0.00    +0.166 HD
ATOM     22  C   UNL     1      22.912   4.761  52.759  1.00  0.00    +0.047 C 
ENDBRANCH   1  15
BRANCH   8  23
ATOM     23  C   UNL     1      26.256   1.473  53.390  1.00  0.00    +0.079 C 
ATOM     24  C   UNL     1      27.007   0.338  53.371  1.00  0.00    +0.153 C 
ATOM     25  C   UNL     1      26.890  -0.603  52.305  1.00  0.00    +0.113 C 
ATOM     26  C   UNL     1      27.938   0.052  54.408  1.00  0.00    +0.113 C 
ATOM     27  N   UNL     1      26.730  -1.299  51.389  1.00  0.00    -0.192 NA
ATOM     28  N   UNL     1      28.696  -0.163  55.260  1.00  0.00    -0.192 NA
BRANCH  23  29
ATOM     29  N   UNL     1      26.300   2.449  54.382  1.00  0.00    -0.396 N 
ATOM     30  H   UNL     1      27.169   2.984  54.432  1.00  0.00    +0.156 HD
ATOM     31  H   UNL     1      25.495   3.074  54.401  1.00  0.00    +0.156 HD
ENDBRANCH  23  29
ENDBRANCH   8  23
TORSDOF 3
ENDMDL
MODEL 6
REMARK VINA RESULT:    -7.083      2.775      4.565
REMARK INTER + INTRA:          -9.234
REMARK INTER:                  -7.932
REMARK INTRA:                  -1.302
REMARK UNBOUND:                -1.116
REMARK SMILES Cc1cc(C)c(-c2ncnc3c2C(=C(C#N)C(N)=C(C#N)C#N)C(=O)N3)[nH]1
REMARK SMILES IDX 7 1 8 2 9 3 10 4 11 5 12 6 13 7 14 8 15 9 16 10 24 11 25 12
REMARK SMILES IDX 26 13 6 15 2 16 3 17 27 18 4 19 1 20 5 22 17 23 19 24 20 25
REMARK SMILES IDX 22 26 21 27 23 28 18 29
REMARK H PARENT 26 14 27 21 18 30 18 31
ROOT
ATOM      1  C   UNL     1      23.842   5.873  49.231  1.00  0.00    +0.100 A 
ATOM      2  N   UNL     1      24.090   6.822  48.299  1.00  0.00    -0.234 NA
ATOM      3  C   UNL     1      25.367   6.982  47.906  1.00  0.00    +0.225 A 
ATOM      4  N   UNL     1      26.412   6.255  48.320  1.00  0.00    -0.218 NA
ATOM      5  C   UNL     1      26.094   5.361  49.255  1.00  0.00    +0.145 A 
ATOM      6  C   UNL     1      24.850   5.164  49.827  1.00  0.00    +0.059 A 
ATOM      7  C   UNL     1      25.001   4.077  50.801  1.00  0.00    +0.073 C 
ATOM      8  C   UNL     1      24.248   3.684  51.851  1.00  0.00    +0.091 C 
ATOM      9  C   UNL     1      23.126   4.442  52.316  1.00  0.00    +0.102 C 
ATOM     10  N   UNL     1      22.250   5.051  52.769  1.00  0.00    -0.192 NA
ATOM     11  C   UNL     1      26.383   3.514  50.569  1.00  0.00    +0.259 C 
ATOM     12  O   UNL     1      26.869   2.515  51.058  1.00  0.00    -0.269 OA
ATOM     13  N   UNL     1      26.986   4.398  49.703  1.00  0.00    -0.306 N 
ATOM     14  H   UNL     1      27.921   4.303  49.338  1.00  0.00    +0.171 HD
ENDROOT
BRANCH   1  15
ATOM     15  C   UNL     1      22.425   5.575  49.387  1.00  0.00    +0.068 A 
ATOM     16  C   UNL     1      20.521   4.369  49.214  1.00  0.00    +0.012 A 
ATOM     17  C   UNL     1      20.193   5.587  49.763  1.00  0.00    +0.026 A 
ATOM     18  N   UNL     1      21.870   4.384  48.962  1.00  0.00    -0.357 N 
ATOM     19  C   UNL     1      21.382   6.363  49.859  1.00  0.00    -0.024 A 
ATOM     20  C   UNL     1      19.683   3.188  48.892  1.00  0.00    +0.064 C 
ATOM     21  H   UNL     1      22.373   3.623  48.519  1.00  0.00    +0.166 HD
ATOM     22  C   UNL     1      21.480   7.750  50.387  1.00  0.00    +0.047 C 
ENDBRANCH   1  15
BRANCH   8  23
ATOM     23  C   UNL     1      24.538   2.469  52.647  1.00  0.00    +0.079 C 
ATOM     24  C   UNL     1      23.880   1.312  52.362  1.00  0.00    +0.153 C 
ATOM     25  C   UNL     1      22.920   1.253  51.308  1.00  0.00    +0.113 C 
ATOM     26  C   UNL     1      24.128   0.122  53.100  1.00  0.00    +0.113 C 
ATOM     27  N   UNL     1      22.168   1.305  50.425  1.00  0.00    -0.192 NA
ATOM     28  N   UNL     1      24.346  -0.842  53.708  1.00  0.00    -0.192 NA
BRANCH  23  29
ATOM     29  N   UNL     1      25.490   2.625  53.651  1.00  0.00    -0.396 N 
ATOM     30  H   UNL     1      25.146   3.032  54.522  1.00  0.00    +0.156 HD
ATOM     31  H   UNL     1      26.047   1.793  53.843  1.00  0.00    +0.156 HD
ENDBRANCH  23  29
ENDBRANCH   8  23
TORSDOF 3
ENDMDL
MODEL 7
REMARK VINA RESULT:    -6.743      1.890      5.500
REMARK INTER + INTRA:          -8.844
REMARK INTER:                  -8.191
REMARK INTRA:                  -0.653
REMARK UNBOUND:                -1.116
REMARK SMILES Cc1cc(C)c(-c2ncnc3c2C(=C(C#N)C(N)=C(C#N)C#N)C(=O)N3)[nH]1
REMARK SMILES IDX 7 1 8 2 9 3 10 4 11 5 12 6 13 7 14 8 15 9 16 10 24 11 25 12
REMARK SMILES IDX 26 13 6 15 2 16 3 17 27 18 4 19 1 20 5 22 17 23 19 24 20 25
REMARK SMILES IDX 22 26 21 27 23 28 18 29
REMARK H PARENT 26 14 27 21 18 30 18 31
ROOT
ATOM      1  C   UNL     1      21.499   0.304  52.929  1.00  0.00    +0.100 A 
ATOM      2  N   UNL     1      21.082  -0.661  53.781  1.00  0.00    -0.234 NA
ATOM      3  C   UNL     1      22.014  -1.247  54.554  1.00  0.00    +0.225 A 
ATOM      4  N   UNL     1      23.315  -0.931  54.591  1.00  0.00    -0.218 NA
ATOM      5  C   UNL     1      23.653   0.007  53.708  1.00  0.00    +0.145 A 
ATOM      6  C   UNL     1      22.825   0.615  52.782  1.00  0.00    +0.059 A 
ATOM      7  C   UNL     1      23.653   1.571  52.037  1.00  0.00    +0.073 C 
ATOM      8  C   UNL     1      23.485   2.186  50.847  1.00  0.00    +0.091 C 
ATOM      9  C   UNL     1      22.413   1.857  49.957  1.00  0.00    +0.102 C 
ATOM     10  N   UNL     1      21.601   1.583  49.177  1.00  0.00    -0.192 NA
ATOM     11  C   UNL     1      24.970   1.624  52.773  1.00  0.00    +0.259 C 
ATOM     12  O   UNL     1      25.895   2.388  52.585  1.00  0.00    -0.269 OA
ATOM     13  N   UNL     1      24.909   0.597  53.687  1.00  0.00    -0.306 N 
ATOM     14  H   UNL     1      25.634   0.368  54.349  1.00  0.00    +0.171 HD
ENDROOT
BRANCH   1  15
ATOM     15  C   UNL     1      20.406   1.072  52.348  1.00  0.00    +0.068 A 
ATOM     16  C   UNL     1      19.311   2.911  51.624  1.00  0.00    +0.012 A 
ATOM     17  C   UNL     1      18.459   1.838  51.486  1.00  0.00    +0.026 A 
ATOM     18  N   UNL     1      20.476   2.440  52.175  1.00  0.00    -0.357 N 
ATOM     19  C   UNL     1      19.133   0.677  51.957  1.00  0.00    -0.024 A 
ATOM     20  C   UNL     1      19.130   4.346  51.295  1.00  0.00    +0.064 C 
ATOM     21  H   UNL     1      21.264   3.027  52.422  1.00  0.00    +0.166 HD
ATOM     22  C   UNL     1      18.573  -0.701  51.999  1.00  0.00    +0.047 C 
ENDBRANCH   1  15
BRANCH   8  23
ATOM     23  C   UNL     1      24.415   3.217  50.331  1.00  0.00    +0.079 C 
ATOM     24  C   UNL     1      24.234   4.519  50.686  1.00  0.00    +0.153 C 
ATOM     25  C   UNL     1      23.165   4.902  51.551  1.00  0.00    +0.113 C 
ATOM     26  C   UNL     1      25.103   5.540  50.214  1.00  0.00    +0.113 C 
ATOM     27  N   UNL     1      22.276   5.109  52.268  1.00  0.00    -0.192 NA
ATOM     28  N   UNL     1      25.825   6.361  49.824  1.00  0.00    -0.192 NA
BRANCH  23  29
ATOM     29  N   UNL     1      25.425   2.746  49.496  1.00  0.00    -0.396 N 
ATOM     30  H   UNL     1      25.114   2.173  48.710  1.00  0.00    +0.156 HD
ATOM     31  H   UNL     1      26.083   3.458  49.179  1.00  0.00    +0.156 HD
ENDBRANCH  23  29
ENDBRANCH   8  23
TORSDOF 3
ENDMDL
MODEL 8
REMARK VINA RESULT:    -6.689      3.083      4.566
REMARK INTER + INTRA:          -8.783
REMARK INTER:                  -7.455
REMARK INTRA:                  -1.328
REMARK UNBOUND:                -1.116
REMARK SMILES Cc1cc(C)c(-c2ncnc3c2C(=C(C#N)C(N)=C(C#N)C#N)C(=O)N3)[nH]1
REMARK SMILES IDX 7 1 8 2 9 3 10 4 11 5 12 6 13 7 14 8 15 9 16 10 24 11 25 12
REMARK SMILES IDX 26 13 6 15 2 16 3 17 27 18 4 19 1 20 5 22 17 23 19 24 20 25
REMARK SMILES IDX 22 26 21 27 23 28 18 29
REMARK H PARENT 26 14 27 21 18 30 18 31
ROOT
ATOM      1  C   UNL     1      21.643   1.733  51.846  1.00  0.00    +0.100 A 
ATOM      2  N   UNL     1      22.637   1.343  52.677  1.00  0.00    -0.234 NA
ATOM      3  C   UNL     1      22.336   0.422  53.610  1.00  0.00    +0.225 A 
ATOM      4  N   UNL     1      21.151  -0.180  53.765  1.00  0.00    -0.218 NA
ATOM      5  C   UNL     1      20.218   0.274  52.930  1.00  0.00    +0.145 A 
ATOM      6  C   UNL     1      20.357   1.288  51.999  1.00  0.00    +0.059 A 
ATOM      7  C   UNL     1      19.060   1.426  51.327  1.00  0.00    +0.073 C 
ATOM      8  C   UNL     1      18.516   2.421  50.594  1.00  0.00    +0.091 C 
ATOM      9  C   UNL     1      19.138   3.703  50.459  1.00  0.00    +0.102 C 
ATOM     10  N   UNL     1      19.570   4.775  50.371  1.00  0.00    -0.192 NA
ATOM     11  C   UNL     1      18.236   0.249  51.791  1.00  0.00    +0.259 C 
ATOM     12  O   UNL     1      17.151  -0.107  51.379  1.00  0.00    -0.269 OA
ATOM     13  N   UNL     1      18.970  -0.320  52.808  1.00  0.00    -0.306 N 
ATOM     14  H   UNL     1      18.700  -1.141  53.327  1.00  0.00    +0.171 HD
ENDROOT
BRANCH   1  15
ATOM     15  C   UNL     1      22.115   2.504  50.704  1.00  0.00    +0.068 A 
ATOM     16  C   UNL     1      22.973   4.283  49.606  1.00  0.00    +0.012 A 
ATOM     17  C   UNL     1      22.647   3.332  48.666  1.00  0.00    +0.026 A 
ATOM     18  N   UNL     1      22.618   3.783  50.834  1.00  0.00    -0.357 N 
ATOM     19  C   UNL     1      22.088   2.214  49.345  1.00  0.00    -0.024 A 
ATOM     20  C   UNL     1      23.581   5.629  49.460  1.00  0.00    +0.064 C 
ATOM     21  H   UNL     1      22.711   4.295  51.703  1.00  0.00    +0.166 HD
ATOM     22  C   UNL     1      21.589   0.965  48.708  1.00  0.00    +0.047 C 
ENDBRANCH   1  15
BRANCH   8  23
ATOM     23  C   UNL     1      17.210   2.299  49.906  1.00  0.00    +0.079 C 
ATOM     24  C   UNL     1      16.119   2.921  50.431  1.00  0.00    +0.153 C 
ATOM     25  C   UNL     1      16.217   3.691  51.628  1.00  0.00    +0.113 C 
ATOM     26  C   UNL     1      14.846   2.832  49.803  1.00  0.00    +0.113 C 
ATOM     27  N   UNL     1      16.403   4.302  52.598  1.00  0.00    -0.192 NA
ATOM     28  N   UNL     1      13.815   2.754  49.275  1.00  0.00    -0.192 NA
BRANCH  23  29
ATOM     29  N   UNL     1      17.215   1.531  48.745  1.00  0.00    -0.396 N 
ATOM     30  H   UNL     1      18.099   1.068  48.529  1.00  0.00    +0.156 HD
ATOM     31  H   UNL     1      16.440   0.872  48.667  1.00  0.00    +0.156 HD
ENDBRANCH  23  29
ENDBRANCH   8  23
TORSDOF 3
ENDMDL
MODEL 9
REMARK VINA RESULT:    -6.620      2.038      3.271
REMARK INTER + INTRA:          -8.704
REMARK INTER:                  -7.590
REMARK INTRA:                  -1.114
REMARK UNBOUND:                -1.116
REMARK SMILES Cc1cc(C)c(-c2ncnc3c2C(=C(C#N)C(N)=C(C#N)C#N)C(=O)N3)[nH]1
REMARK SMILES IDX 7 1 8 2 9 3 10 4 11 5 12 6 13 7 14 8 15 9 16 10 24 11 25 12
REMARK SMILES IDX 26 13 6 15 2 16 3 17 27 18 4 19 1 20 5 22 17 23 19 24 20 25
REMARK SMILES IDX 22 26 21 27 23 28 18 29
REMARK H PARENT 26 14 27 21 18 30 18 31
ROOT
ATOM      1  C   UNL     1      24.530   4.552  49.481  1.00  0.00    +0.100 A 
ATOM      2  N   UNL     1      25.291   5.359  48.706  1.00  0.00    -0.234 NA
ATOM      3  C   UNL     1      26.622   5.168  48.737  1.00  0.00    +0.225 A 
ATOM      4  N   UNL     1      27.263   4.220  49.432  1.00  0.00    -0.218 NA
ATOM      5  C   UNL     1      26.451   3.484  50.190  1.00  0.00    +0.145 A 
ATOM      6  C   UNL     1      25.085   3.639  50.337  1.00  0.00    +0.059 A 
ATOM      7  C   UNL     1      24.641   2.599  51.273  1.00  0.00    +0.073 C 
ATOM      8  C   UNL     1      23.525   2.464  52.021  1.00  0.00    +0.091 C 
ATOM      9  C   UNL     1      22.549   3.505  52.138  1.00  0.00    +0.102 C 
ATOM     10  N   UNL     1      21.763   4.339  52.315  1.00  0.00    -0.192 NA
ATOM     11  C   UNL     1      25.832   1.692  51.465  1.00  0.00    +0.259 C 
ATOM     12  O   UNL     1      25.868   0.627  52.047  1.00  0.00    -0.269 OA
ATOM     13  N   UNL     1      26.881   2.349  50.861  1.00  0.00    -0.306 N 
ATOM     14  H   UNL     1      27.825   2.001  50.803  1.00  0.00    +0.171 HD
ENDROOT
BRANCH   1  15
ATOM     15  C   UNL     1      23.108   4.633  49.176  1.00  0.00    +0.068 A 
ATOM     16  C   UNL     1      21.012   5.475  49.237  1.00  0.00    +0.012 A 
ATOM     17  C   UNL     1      20.969   4.306  48.511  1.00  0.00    +0.026 A 
ATOM     18  N   UNL     1      22.305   5.647  49.661  1.00  0.00    -0.357 N 
ATOM     19  C   UNL     1      22.281   3.757  48.483  1.00  0.00    -0.024 A 
ATOM     20  C   UNL     1      19.945   6.447  49.582  1.00  0.00    +0.064 C 
ATOM     21  H   UNL     1      22.612   6.411  50.251  1.00  0.00    +0.166 HD
ATOM     22  C   UNL     1      22.684   2.490  47.814  1.00  0.00    +0.047 C 
ENDBRANCH   1  15
BRANCH   8  23
ATOM     23  C   UNL     1      23.230   1.256  52.826  1.00  0.00    +0.079 C 
ATOM     24  C   UNL     1      22.309   0.361  52.374  1.00  0.00    +0.153 C 
ATOM     25  C   UNL     1      21.628   0.569  51.138  1.00  0.00    +0.113 C 
ATOM     26  C   UNL     1      21.996  -0.812  53.114  1.00  0.00    +0.113 C 
ATOM     27  N   UNL     1      21.138   0.822  50.116  1.00  0.00    -0.192 NA
ATOM     28  N   UNL     1      21.756  -1.768  53.728  1.00  0.00    -0.192 NA
BRANCH  23  29
ATOM     29  N   UNL     1      23.946   1.140  54.014  1.00  0.00    -0.396 N 
ATOM     30  H   UNL     1      23.432   0.736  54.799  1.00  0.00    +0.156 HD
ATOM     31  H   UNL     1      24.859   0.696  53.920  1.00  0.00    +0.156 HD
ENDBRANCH  23  29
ENDBRANCH   8  23
TORSDOF 3
ENDMDL
