MODEL 1
REMARK VINA RESULT:    -6.474      0.000      0.000
REMARK INTER + INTRA:          -9.577
REMARK INTER:                  -8.933
REMARK INTRA:                  -0.644
REMARK UNBOUND:                -0.644
REMARK SMILES C[N+](C)(C)C[C@H](O)COc1ccc(-c2ccccc2Br)cn1
REMARK SMILES IDX 8 1 6 2 5 3 2 4 1 5 3 6 4 7 7 8 9 10 10 11 11 12 22 13 12 14
REMARK SMILES IDX 21 15 13 16 14 17 15 18 19 19 16 20 18 21 17 22 20 23
REMARK H PARENT 7 9
ROOT
ATOM      1  C   UNL     1      23.461   4.664  52.424  1.00  0.00    +0.269 C 
ENDROOT
BRANCH   1   2
ATOM      2  C   UNL     1      23.482   5.903  51.523  1.00  0.00    +0.206 C 
BRANCH   2   3
ATOM      3  C   UNL     1      23.767   5.623  50.031  1.00  0.00    +0.299 C 
BRANCH   3   4
ATOM      4  N   UNL     1      22.627   5.837  48.998  1.00  0.00    -0.329 N 
ATOM      5  C   UNL     1      22.723   4.689  47.982  1.00  0.00    +0.334 C 
ATOM      6  C   UNL     1      21.247   5.768  49.647  1.00  0.00    +0.334 C 
ATOM      7  C   UNL     1      22.771   7.142  48.235  1.00  0.00    +0.334 C 
ENDBRANCH   3   4
ENDBRANCH   2   3
BRANCH   2   8
ATOM      8  O   UNL     1      24.403   6.873  52.048  1.00  0.00    -0.384 OA
ATOM      9  H   UNL     1      24.367   7.643  51.444  1.00  0.00    +0.211 HD
ENDBRANCH   2   8
ENDBRANCH   1   2
BRANCH   1  10
ATOM     10  O   UNL     1      23.316   3.476  51.634  1.00  0.00    -0.475 OA
BRANCH  10  11
ATOM     11  C   UNL     1      24.266   2.511  51.915  1.00  0.00    +0.213 A 
ATOM     12  C   UNL     1      25.426   2.548  51.162  1.00  0.00    +0.069 A 
ATOM     13  N   UNL     1      24.037   1.627  52.913  1.00  0.00    -0.221 NA
ATOM     14  C   UNL     1      26.423   1.616  51.439  1.00  0.00    +0.016 A 
ATOM     15  C   UNL     1      25.029   0.731  53.152  1.00  0.00    +0.124 A 
ATOM     16  C   UNL     1      26.240   0.678  52.460  1.00  0.00    +0.001 A 
BRANCH  16  17
ATOM     17  C   UNL     1      27.269  -0.318  52.781  1.00  0.00    -0.003 A 
ATOM     18  C   UNL     1      27.037  -1.666  52.452  1.00  0.00    +0.010 A 
ATOM     19  C   UNL     1      28.489   0.007  53.406  1.00  0.00    +0.025 A 
ATOM     20  C   UNL     1      27.982  -2.655  52.740  1.00  0.00    +0.001 A 
ATOM     21  C   UNL     1      29.434  -0.985  53.694  1.00  0.00    +0.016 A 
ATOM     22  C   UNL     1      29.178  -2.314  53.361  1.00  0.00    +0.001 A 
ATOM     23 Br   UNL     1      28.941   1.796  53.874  1.00  0.00    -0.050 Br
ENDBRANCH  16  17
ENDBRANCH  10  11
ENDBRANCH   1  10
TORSDOF 7
ENDMDL
MODEL 2
REMARK VINA RESULT:    -6.400      5.977      7.218
REMARK INTER + INTRA:          -9.476
REMARK INTER:                  -8.839
REMARK INTRA:                  -0.637
REMARK UNBOUND:                -0.644
REMARK SMILES C[N+](C)(C)C[C@H](O)COc1ccc(-c2ccccc2Br)cn1
REMARK SMILES IDX 8 1 6 2 5 3 2 4 1 5 3 6 4 7 7 8 9 10 10 11 11 12 22 13 12 14
REMARK SMILES IDX 21 15 13 16 14 17 15 18 19 19 16 20 18 21 17 22 20 23
REMARK H PARENT 7 9
ROOT
ATOM      1  C   UNL     1      17.084   3.571  51.453  1.00  0.00    +0.269 C 
ENDROOT
BRANCH   1   2
ATOM      2  C   UNL     1      15.823   3.696  52.315  1.00  0.00    +0.206 C 
BRANCH   2   3
ATOM      3  C   UNL     1      14.510   3.900  51.528  1.00  0.00    +0.299 C 
BRANCH   3   4
ATOM      4  N   UNL     1      13.168   3.479  52.188  1.00  0.00    -0.329 N 
ATOM      5  C   UNL     1      12.239   3.017  51.058  1.00  0.00    +0.334 C 
ATOM      6  C   UNL     1      13.347   2.308  53.151  1.00  0.00    +0.334 C 
ATOM      7  C   UNL     1      12.486   4.633  52.904  1.00  0.00    +0.334 C 
ENDBRANCH   3   4
ENDBRANCH   2   3
BRANCH   2   8
ATOM      8  O   UNL     1      16.001   4.732  53.293  1.00  0.00    -0.384 OA
ATOM      9  H   UNL     1      16.040   5.577  52.798  1.00  0.00    +0.211 HD
ENDBRANCH   2   8
ENDBRANCH   1   2
BRANCH   1  10
ATOM     10  O   UNL     1      17.391   2.191  51.216  1.00  0.00    -0.475 OA
BRANCH  10  11
ATOM     11  C   UNL     1      18.680   1.845  51.579  1.00  0.00    +0.213 A 
ATOM     12  C   UNL     1      19.179   0.672  51.042  1.00  0.00    +0.069 A 
ATOM     13  N   UNL     1      19.384   2.670  52.386  1.00  0.00    -0.221 NA
ATOM     14  C   UNL     1      20.487   0.307  51.352  1.00  0.00    +0.016 A 
ATOM     15  C   UNL     1      20.654   2.281  52.671  1.00  0.00    +0.124 A 
ATOM     16  C   UNL     1      21.262   1.122  52.184  1.00  0.00    +0.001 A 
BRANCH  16  17
ATOM     17  C   UNL     1      22.643   0.771  52.532  1.00  0.00    -0.003 A 
ATOM     18  C   UNL     1      23.698   1.361  51.811  1.00  0.00    +0.010 A 
ATOM     19  C   UNL     1      22.974  -0.134  53.561  1.00  0.00    +0.025 A 
ATOM     20  C   UNL     1      25.031   1.058  52.099  1.00  0.00    +0.001 A 
ATOM     21  C   UNL     1      24.310  -0.437  53.847  1.00  0.00    +0.016 A 
ATOM     22  C   UNL     1      25.336   0.159  53.115  1.00  0.00    +0.001 A 
ATOM     23 Br   UNL     1      21.645  -0.976  54.632  1.00  0.00    -0.050 Br
ENDBRANCH  16  17
ENDBRANCH  10  11
ENDBRANCH   1  10
TORSDOF 7
ENDMDL
MODEL 3
REMARK VINA RESULT:    -6.397      1.783      2.162
REMARK INTER + INTRA:          -9.471
REMARK INTER:                  -9.003
REMARK INTRA:                  -0.469
REMARK UNBOUND:                -0.644
REMARK SMILES C[N+](C)(C)C[C@H](O)COc1ccc(-c2ccccc2Br)cn1
REMARK SMILES IDX 8 1 6 2 5 3 2 4 1 5 3 6 4 7 7 8 9 10 10 11 11 12 22 13 12 14
REMARK SMILES IDX 21 15 13 16 14 17 15 18 19 19 16 20 18 21 17 22 20 23
REMARK H PARENT 7 9
ROOT
ATOM      1  C   UNL     1      21.830   2.013  51.299  1.00  0.00    +0.269 C 
ENDROOT
BRANCH   1   2
ATOM      2  C   UNL     1      21.064   3.329  51.471  1.00  0.00    +0.206 C 
BRANCH   2   3
ATOM      3  C   UNL     1      21.944   4.599  51.498  1.00  0.00    +0.299 C 
BRANCH   3   4
ATOM      4  N   UNL     1      21.800   5.633  50.349  1.00  0.00    -0.329 N 
ATOM      5  C   UNL     1      20.553   5.238  49.545  1.00  0.00    +0.334 C 
ATOM      6  C   UNL     1      21.583   7.049  50.877  1.00  0.00    +0.334 C 
ATOM      7  C   UNL     1      22.986   5.616  49.400  1.00  0.00    +0.334 C 
ENDBRANCH   3   4
ENDBRANCH   2   3
BRANCH   2   8
ATOM      8  O   UNL     1      20.228   3.258  52.636  1.00  0.00    -0.384 OA
ATOM      9  H   UNL     1      19.782   2.387  52.604  1.00  0.00    +0.211 HD
ENDBRANCH   2   8
ENDBRANCH   1   2
BRANCH   1  10
ATOM     10  O   UNL     1      22.081   1.411  52.575  1.00  0.00    -0.475 OA
BRANCH  10  11
ATOM     11  C   UNL     1      23.359   0.898  52.699  1.00  0.00    +0.213 A 
ATOM     12  C   UNL     1      24.324   1.436  51.866  1.00  0.00    +0.069 A 
ATOM     13  N   UNL     1      23.605  -0.050  53.631  1.00  0.00    -0.221 NA
ATOM     14  C   UNL     1      25.632   0.972  51.985  1.00  0.00    +0.016 A 
ATOM     15  C   UNL     1      24.890  -0.482  53.716  1.00  0.00    +0.124 A 
ATOM     16  C   UNL     1      25.944  -0.009  52.932  1.00  0.00    +0.001 A 
BRANCH  16  17
ATOM     17  C   UNL     1      27.310  -0.520  53.086  1.00  0.00    -0.003 A 
ATOM     18  C   UNL     1      27.550  -1.893  52.889  1.00  0.00    +0.010 A 
ATOM     19  C   UNL     1      28.407   0.299  53.423  1.00  0.00    +0.025 A 
ATOM     20  C   UNL     1      28.831  -2.431  53.028  1.00  0.00    +0.001 A 
ATOM     21  C   UNL     1      29.690  -0.244  53.562  1.00  0.00    +0.016 A 
ATOM     22  C   UNL     1      29.900  -1.608  53.366  1.00  0.00    +0.001 A 
ATOM     23 Br   UNL     1      28.226   2.175  53.684  1.00  0.00    -0.050 Br
ENDBRANCH  16  17
ENDBRANCH  10  11
ENDBRANCH   1  10
TORSDOF 7
ENDMDL
MODEL 4
REMARK VINA RESULT:    -6.375      4.585      7.252
REMARK INTER + INTRA:          -9.441
REMARK INTER:                  -8.655
REMARK INTRA:                  -0.787
REMARK UNBOUND:                -0.644
REMARK SMILES C[N+](C)(C)C[C@H](O)COc1ccc(-c2ccccc2Br)cn1
REMARK SMILES IDX 8 1 6 2 5 3 2 4 1 5 3 6 4 7 7 8 9 10 10 11 11 12 22 13 12 14
REMARK SMILES IDX 21 15 13 16 14 17 15 18 19 19 16 20 18 21 17 22 20 23
REMARK H PARENT 7 9
ROOT
ATOM      1  C   UNL     1      24.344   3.707  51.610  1.00  0.00    +0.269 C 
ENDROOT
BRANCH   1   2
ATOM      2  C   UNL     1      25.464   2.672  51.753  1.00  0.00    +0.206 C 
BRANCH   2   3
ATOM      3  C   UNL     1      25.562   2.002  53.142  1.00  0.00    +0.299 C 
BRANCH   3   4
ATOM      4  N   UNL     1      25.822   0.472  53.218  1.00  0.00    -0.329 N 
ATOM      5  C   UNL     1      26.631   0.220  54.498  1.00  0.00    +0.334 C 
ATOM      6  C   UNL     1      24.524  -0.324  53.325  1.00  0.00    +0.334 C 
ATOM      7  C   UNL     1      26.642  -0.037  52.045  1.00  0.00    +0.334 C 
ENDBRANCH   3   4
ENDBRANCH   2   3
BRANCH   2   8
ATOM      8  O   UNL     1      26.720   3.256  51.375  1.00  0.00    -0.384 OA
ATOM      9  H   UNL     1      27.315   2.510  51.152  1.00  0.00    +0.211 HD
ENDBRANCH   2   8
ENDBRANCH   1   2
BRANCH   1  10
ATOM     10  O   UNL     1      23.472   3.353  50.528  1.00  0.00    -0.475 OA
BRANCH  10  11
ATOM     11  C   UNL     1      22.406   2.563  50.917  1.00  0.00    +0.213 A 
ATOM     12  C   UNL     1      22.263   1.352  50.264  1.00  0.00    +0.069 A 
ATOM     13  N   UNL     1      21.601   2.984  51.919  1.00  0.00    -0.221 NA
ATOM     14  C   UNL     1      21.224   0.510  50.653  1.00  0.00    +0.016 A 
ATOM     15  C   UNL     1      20.597   2.140  52.269  1.00  0.00    +0.124 A 
ATOM     16  C   UNL     1      20.360   0.896  51.683  1.00  0.00    +0.001 A 
BRANCH  16  17
ATOM     17  C   UNL     1      19.255   0.035  52.120  1.00  0.00    -0.003 A 
ATOM     18  C   UNL     1      18.042   0.070  51.408  1.00  0.00    +0.010 A 
ATOM     19  C   UNL     1      19.345  -0.836  53.225  1.00  0.00    +0.025 A 
ATOM     20  C   UNL     1      16.957  -0.726  51.785  1.00  0.00    +0.001 A 
ATOM     21  C   UNL     1      18.256  -1.632  53.601  1.00  0.00    +0.016 A 
ATOM     22  C   UNL     1      17.065  -1.575  52.881  1.00  0.00    +0.001 A 
ATOM     23 Br   UNL     1      20.938  -1.004  54.252  1.00  0.00    -0.050 Br
ENDBRANCH  16  17
ENDBRANCH  10  11
ENDBRANCH   1  10
TORSDOF 7
ENDMDL
MODEL 5
REMARK VINA RESULT:    -6.339      4.828      7.753
REMARK INTER + INTRA:          -9.392
REMARK INTER:                  -8.802
REMARK INTRA:                  -0.590
REMARK UNBOUND:                -0.644
REMARK SMILES C[N+](C)(C)C[C@H](O)COc1ccc(-c2ccccc2Br)cn1
REMARK SMILES IDX 8 1 6 2 5 3 2 4 1 5 3 6 4 7 7 8 9 10 10 11 11 12 22 13 12 14
REMARK SMILES IDX 21 15 13 16 14 17 15 18 19 19 16 20 18 21 17 22 20 23
REMARK H PARENT 7 9
ROOT
ATOM      1  C   UNL     1      25.208   2.089  51.357  1.00  0.00    +0.269 C 
ENDROOT
BRANCH   1   2
ATOM      2  C   UNL     1      26.582   1.903  52.009  1.00  0.00    +0.206 C 
BRANCH   2   3
ATOM      3  C   UNL     1      26.554   1.620  53.527  1.00  0.00    +0.299 C 
BRANCH   3   4
ATOM      4  N   UNL     1      26.826   0.174  54.025  1.00  0.00    -0.329 N 
ATOM      5  C   UNL     1      27.207  -0.658  52.792  1.00  0.00    +0.334 C 
ATOM      6  C   UNL     1      27.995   0.116  55.004  1.00  0.00    +0.334 C 
ATOM      7  C   UNL     1      25.599  -0.466  54.652  1.00  0.00    +0.334 C 
ENDBRANCH   3   4
ENDBRANCH   2   3
BRANCH   2   8
ATOM      8  O   UNL     1      27.420   3.031  51.713  1.00  0.00    -0.384 OA
ATOM      9  H   UNL     1      27.202   3.719  52.375  1.00  0.00    +0.211 HD
ENDBRANCH   2   8
ENDBRANCH   1   2
BRANCH   1  10
ATOM     10  O   UNL     1      24.278   2.635  52.302  1.00  0.00    -0.475 OA
BRANCH  10  11
ATOM     11  C   UNL     1      23.050   2.000  52.294  1.00  0.00    +0.213 A 
ATOM     12  C   UNL     1      23.069   0.620  52.188  1.00  0.00    +0.069 A 
ATOM     13  N   UNL     1      21.923   2.735  52.429  1.00  0.00    -0.221 NA
ATOM     14  C   UNL     1      21.854  -0.061  52.214  1.00  0.00    +0.016 A 
ATOM     15  C   UNL     1      20.757   2.038  52.447  1.00  0.00    +0.124 A 
ATOM     16  C   UNL     1      20.656   0.649  52.350  1.00  0.00    +0.001 A 
BRANCH  16  17
ATOM     17  C   UNL     1      19.358  -0.034  52.383  1.00  0.00    -0.003 A 
ATOM     18  C   UNL     1      19.081  -0.918  53.442  1.00  0.00    +0.010 A 
ATOM     19  C   UNL     1      18.364   0.150  51.401  1.00  0.00    +0.025 A 
ATOM     20  C   UNL     1      17.863  -1.598  53.518  1.00  0.00    +0.001 A 
ATOM     21  C   UNL     1      17.144  -0.533  51.479  1.00  0.00    +0.016 A 
ATOM     22  C   UNL     1      16.896  -1.406  52.536  1.00  0.00    +0.001 A 
ATOM     23 Br   UNL     1      18.599   1.341  49.935  1.00  0.00    -0.050 Br
ENDBRANCH  16  17
ENDBRANCH  10  11
ENDBRANCH   1  10
TORSDOF 7
ENDMDL
MODEL 6
REMARK VINA RESULT:    -6.313      3.450      4.585
REMARK INTER + INTRA:          -9.356
REMARK INTER:                  -8.459
REMARK INTRA:                  -0.897
REMARK UNBOUND:                -0.644
REMARK SMILES C[N+](C)(C)C[C@H](O)COc1ccc(-c2ccccc2Br)cn1
REMARK SMILES IDX 8 1 6 2 5 3 2 4 1 5 3 6 4 7 7 8 9 10 10 11 11 12 22 13 12 14
REMARK SMILES IDX 21 15 13 16 14 17 15 18 19 19 16 20 18 21 17 22 20 23
REMARK H PARENT 7 9
ROOT
ATOM      1  C   UNL     1      23.813   6.114  49.890  1.00  0.00    +0.269 C 
ENDROOT
BRANCH   1   2
ATOM      2  C   UNL     1      24.570   7.250  50.587  1.00  0.00    +0.206 C 
BRANCH   2   3
ATOM      3  C   UNL     1      26.027   7.451  50.116  1.00  0.00    +0.299 C 
BRANCH   3   4
ATOM      4  N   UNL     1      26.308   8.446  48.957  1.00  0.00    -0.329 N 
ATOM      5  C   UNL     1      27.510   9.301  49.383  1.00  0.00    +0.334 C 
ATOM      6  C   UNL     1      26.685   7.727  47.664  1.00  0.00    +0.334 C 
ATOM      7  C   UNL     1      25.142   9.385  48.700  1.00  0.00    +0.334 C 
ENDBRANCH   3   4
ENDBRANCH   2   3
BRANCH   2   8
ATOM      8  O   UNL     1      24.509   7.075  52.011  1.00  0.00    -0.384 OA
ATOM      9  H   UNL     1      23.565   6.946  52.234  1.00  0.00    +0.211 HD
ENDBRANCH   2   8
ENDBRANCH   1   2
BRANCH   1  10
ATOM     10  O   UNL     1      24.603   4.917  49.887  1.00  0.00    -0.475 OA
BRANCH  10  11
ATOM     11  C   UNL     1      24.079   3.912  50.679  1.00  0.00    +0.213 A 
ATOM     12  C   UNL     1      23.596   2.795  50.021  1.00  0.00    +0.069 A 
ATOM     13  N   UNL     1      24.103   4.049  52.024  1.00  0.00    -0.221 NA
ATOM     14  C   UNL     1      23.095   1.744  50.785  1.00  0.00    +0.016 A 
ATOM     15  C   UNL     1      23.603   3.006  52.737  1.00  0.00    +0.124 A 
ATOM     16  C   UNL     1      23.093   1.832  52.181  1.00  0.00    +0.001 A 
BRANCH  16  17
ATOM     17  C   UNL     1      22.574   0.744  53.018  1.00  0.00    -0.003 A 
ATOM     18  C   UNL     1      21.192   0.681  53.273  1.00  0.00    +0.010 A 
ATOM     19  C   UNL     1      23.394  -0.253  53.584  1.00  0.00    +0.025 A 
ATOM     20  C   UNL     1      20.646  -0.331  54.066  1.00  0.00    +0.001 A 
ATOM     21  C   UNL     1      22.846  -1.266  54.380  1.00  0.00    +0.016 A 
ATOM     22  C   UNL     1      21.473  -1.302  54.620  1.00  0.00    +0.001 A 
ATOM     23 Br   UNL     1      25.274  -0.303  53.291  1.00  0.00    -0.050 Br
ENDBRANCH  16  17
ENDBRANCH  10  11
ENDBRANCH   1  10
TORSDOF 7
ENDMDL
MODEL 7
REMARK VINA RESULT:    -6.130      2.961      3.997
REMARK INTER + INTRA:          -9.103
REMARK INTER:                  -8.566
REMARK INTRA:                  -0.537
REMARK UNBOUND:                -0.644
REMARK SMILES C[N+](C)(C)C[C@H](O)COc1ccc(-c2ccccc2Br)cn1
REMARK SMILES IDX 8 1 6 2 5 3 2 4 1 5 3 6 4 7 7 8 9 10 10 11 11 12 22 13 12 14
REMARK SMILES IDX 21 15 13 16 14 17 15 18 19 19 16 20 18 21 17 22 20 23
REMARK H PARENT 7 9
ROOT
ATOM      1  C   UNL     1      22.175   2.608  49.810  1.00  0.00    +0.269 C 
ENDROOT
BRANCH   1   2
ATOM      2  C   UNL     1      20.716   2.159  49.683  1.00  0.00    +0.206 C 
BRANCH   2   3
ATOM      3  C   UNL     1      20.362   0.860  50.440  1.00  0.00    +0.299 C 
BRANCH   3   4
ATOM      4  N   UNL     1      19.241   0.902  51.515  1.00  0.00    -0.329 N 
ATOM      5  C   UNL     1      19.892   0.532  52.855  1.00  0.00    +0.334 C 
ATOM      6  C   UNL     1      18.639   2.297  51.660  1.00  0.00    +0.334 C 
ATOM      7  C   UNL     1      18.138  -0.107  51.244  1.00  0.00    +0.334 C 
ENDBRANCH   3   4
ENDBRANCH   2   3
BRANCH   2   8
ATOM      8  O   UNL     1      20.354   2.061  48.297  1.00  0.00    -0.384 OA
ATOM      9  H   UNL     1      19.547   2.605  48.182  1.00  0.00    +0.211 HD
ENDBRANCH   2   8
ENDBRANCH   1   2
BRANCH   1  10
ATOM     10  O   UNL     1      22.529   2.768  51.190  1.00  0.00    -0.475 OA
BRANCH  10  11
ATOM     11  C   UNL     1      23.641   2.033  51.561  1.00  0.00    +0.213 A 
ATOM     12  C   UNL     1      23.448   1.066  52.531  1.00  0.00    +0.069 A 
ATOM     13  N   UNL     1      24.822   2.263  50.943  1.00  0.00    -0.221 NA
ATOM     14  C   UNL     1      24.535   0.279  52.905  1.00  0.00    +0.016 A 
ATOM     15  C   UNL     1      25.860   1.480  51.335  1.00  0.00    +0.124 A 
ATOM     16  C   UNL     1      25.781   0.474  52.299  1.00  0.00    +0.001 A 
BRANCH  16  17
ATOM     17  C   UNL     1      26.947  -0.336  52.667  1.00  0.00    -0.003 A 
ATOM     18  C   UNL     1      26.905  -1.727  52.454  1.00  0.00    +0.010 A 
ATOM     19  C   UNL     1      28.121   0.209  53.226  1.00  0.00    +0.025 A 
ATOM     20  C   UNL     1      27.986  -2.545  52.790  1.00  0.00    +0.001 A 
ATOM     21  C   UNL     1      29.203  -0.613  53.563  1.00  0.00    +0.016 A 
ATOM     22  C   UNL     1      29.134  -1.988  53.345  1.00  0.00    +0.001 A 
ATOM     23 Br   UNL     1      28.321   2.076  53.535  1.00  0.00    -0.050 Br
ENDBRANCH  16  17
ENDBRANCH  10  11
ENDBRANCH   1  10
TORSDOF 7
ENDMDL
MODEL 8
REMARK VINA RESULT:    -6.119      4.146      5.163
REMARK INTER + INTRA:          -9.088
REMARK INTER:                  -8.201
REMARK INTRA:                  -0.887
REMARK UNBOUND:                -0.644
REMARK SMILES C[N+](C)(C)C[C@H](O)COc1ccc(-c2ccccc2Br)cn1
REMARK SMILES IDX 8 1 6 2 5 3 2 4 1 5 3 6 4 7 7 8 9 10 10 11 11 12 22 13 12 14
REMARK SMILES IDX 21 15 13 16 14 17 15 18 19 19 16 20 18 21 17 22 20 23
REMARK H PARENT 7 9
ROOT
ATOM      1  C   UNL     1      23.264   6.303  50.040  1.00  0.00    +0.269 C 
ENDROOT
BRANCH   1   2
ATOM      2  C   UNL     1      24.362   7.159  50.681  1.00  0.00    +0.206 C 
BRANCH   2   3
ATOM      3  C   UNL     1      25.765   6.996  50.057  1.00  0.00    +0.299 C 
BRANCH   3   4
ATOM      4  N   UNL     1      26.438   8.229  49.394  1.00  0.00    -0.329 N 
ATOM      5  C   UNL     1      27.081   7.739  48.089  1.00  0.00    +0.334 C 
ATOM      6  C   UNL     1      25.422   9.310  49.035  1.00  0.00    +0.334 C 
ATOM      7  C   UNL     1      27.538   8.825  50.255  1.00  0.00    +0.334 C 
ENDBRANCH   3   4
ENDBRANCH   2   3
BRANCH   2   8
ATOM      8  O   UNL     1      24.399   6.925  52.097  1.00  0.00    -0.384 OA
ATOM      9  H   UNL     1      23.929   6.080  52.251  1.00  0.00    +0.211 HD
ENDBRANCH   2   8
ENDBRANCH   1   2
BRANCH   1  10
ATOM     10  O   UNL     1      23.789   5.027  49.651  1.00  0.00    -0.475 OA
BRANCH  10  11
ATOM     11  C   UNL     1      23.319   3.981  50.425  1.00  0.00    +0.213 A 
ATOM     12  C   UNL     1      23.373   2.720  49.857  1.00  0.00    +0.069 A 
ATOM     13  N   UNL     1      22.881   4.230  51.680  1.00  0.00    -0.221 NA
ATOM     14  C   UNL     1      22.945   1.635  50.618  1.00  0.00    +0.016 A 
ATOM     15  C   UNL     1      22.467   3.150  52.390  1.00  0.00    +0.124 A 
ATOM     16  C   UNL     1      22.480   1.834  51.922  1.00  0.00    +0.001 A 
BRANCH  16  17
ATOM     17  C   UNL     1      22.022   0.715  52.753  1.00  0.00    -0.003 A 
ATOM     18  C   UNL     1      22.945   0.073  53.599  1.00  0.00    +0.010 A 
ATOM     19  C   UNL     1      20.693   0.246  52.751  1.00  0.00    +0.025 A 
ATOM     20  C   UNL     1      22.562  -1.001  54.407  1.00  0.00    +0.001 A 
ATOM     21  C   UNL     1      20.312  -0.831  53.561  1.00  0.00    +0.016 A 
ATOM     22  C   UNL     1      21.247  -1.452  54.387  1.00  0.00    +0.001 A 
ATOM     23 Br   UNL     1      19.340   1.046  51.679  1.00  0.00    -0.050 Br
ENDBRANCH  16  17
ENDBRANCH  10  11
ENDBRANCH   1  10
TORSDOF 7
ENDMDL
MODEL 9
REMARK VINA RESULT:    -6.054      3.324      4.136
REMARK INTER + INTRA:          -8.998
REMARK INTER:                  -8.484
REMARK INTRA:                  -0.514
REMARK UNBOUND:                -0.644
REMARK SMILES C[N+](C)(C)C[C@H](O)COc1ccc(-c2ccccc2Br)cn1
REMARK SMILES IDX 8 1 6 2 5 3 2 4 1 5 3 6 4 7 7 8 9 10 10 11 11 12 22 13 12 14
REMARK SMILES IDX 21 15 13 16 14 17 15 18 19 19 16 20 18 21 17 22 20 23
REMARK H PARENT 7 9
ROOT
ATOM      1  C   UNL     1      25.096   5.711  50.157  1.00  0.00    +0.269 C 
ENDROOT
BRANCH   1   2
ATOM      2  C   UNL     1      24.096   6.652  50.838  1.00  0.00    +0.206 C 
BRANCH   2   3
ATOM      3  C   UNL     1      23.734   7.918  50.031  1.00  0.00    +0.299 C 
BRANCH   3   4
ATOM      4  N   UNL     1      22.431   7.920  49.186  1.00  0.00    -0.329 N 
ATOM      5  C   UNL     1      21.420   7.027  49.921  1.00  0.00    +0.334 C 
ATOM      6  C   UNL     1      21.823   9.315  49.075  1.00  0.00    +0.334 C 
ATOM      7  C   UNL     1      22.636   7.338  47.798  1.00  0.00    +0.334 C 
ENDBRANCH   3   4
ENDBRANCH   2   3
BRANCH   2   8
ATOM      8  O   UNL     1      24.566   6.996  52.151  1.00  0.00    -0.384 OA
ATOM      9  H   UNL     1      25.345   7.576  52.022  1.00  0.00    +0.211 HD
ENDBRANCH   2   8
ENDBRANCH   1   2
BRANCH   1  10
ATOM     10  O   UNL     1      24.406   4.632  49.513  1.00  0.00    -0.475 OA
BRANCH  10  11
ATOM     11  C   UNL     1      23.925   3.683  50.396  1.00  0.00    +0.213 A 
ATOM     12  C   UNL     1      23.259   2.604  49.842  1.00  0.00    +0.069 A 
ATOM     13  N   UNL     1      24.158   3.832  51.720  1.00  0.00    -0.221 NA
ATOM     14  C   UNL     1      22.791   1.608  50.695  1.00  0.00    +0.016 A 
ATOM     15  C   UNL     1      23.684   2.844  52.522  1.00  0.00    +0.124 A 
ATOM     16  C   UNL     1      23.003   1.711  52.074  1.00  0.00    +0.001 A 
BRANCH  16  17
ATOM     17  C   UNL     1      22.526   0.680  53.003  1.00  0.00    -0.003 A 
ATOM     18  C   UNL     1      21.154   0.627  53.314  1.00  0.00    +0.010 A 
ATOM     19  C   UNL     1      23.375  -0.269  53.605  1.00  0.00    +0.025 A 
ATOM     20  C   UNL     1      20.648  -0.331  54.196  1.00  0.00    +0.001 A 
ATOM     21  C   UNL     1      22.866  -1.228  54.489  1.00  0.00    +0.016 A 
ATOM     22  C   UNL     1      21.504  -1.257  54.783  1.00  0.00    +0.001 A 
ATOM     23 Br   UNL     1      25.243  -0.328  53.245  1.00  0.00    -0.050 Br
ENDBRANCH  16  17
ENDBRANCH  10  11
ENDBRANCH   1  10
TORSDOF 7
ENDMDL
