MODEL 1
REMARK VINA RESULT:    -8.194      0.000      0.000
REMARK INTER + INTRA:         -14.462
REMARK INTER:                 -12.026
REMARK INTRA:                  -2.436
REMARK UNBOUND:                -2.436
REMARK SMILES CCN(CC/N=N/Nc1ccc2ncnc(-c3cccc(Cl)c3)c2c1)c1cccc(Br)c1
REMARK SMILES IDX 6 1 7 2 5 3 4 4 3 5 2 6 1 7 26 8 27 9 32 10 28 11 30 12
REMARK SMILES IDX 29 13 31 14 8 15 9 17 10 18 25 19 11 20 24 21 12 22 16 23
REMARK SMILES IDX 13 24 15 25 14 26 17 27 18 28 23 29 19 30 21 31 20 32 22 33
REMARK H PARENT 8 16
ROOT
ATOM      1  N   UNL     1      21.490   3.391  48.491  1.00  0.00    -0.169 NA
ATOM      2  N   UNL     1      22.266   2.428  48.358  1.00  0.00    -0.075 NA
ENDROOT
BRANCH   1   3
ATOM      3  C   UNL     1      22.182   4.679  48.309  1.00  0.00    +0.190 C 
BRANCH   3   4
ATOM      4  C   UNL     1      22.221   5.434  49.643  1.00  0.00    +0.142 C 
BRANCH   4   5
ATOM      5  N   UNL     1      23.337   4.996  50.502  1.00  0.00    -0.370 N 
BRANCH   5   6
ATOM      6  C   UNL     1      23.037   4.818  51.929  1.00  0.00    +0.113 C 
ATOM      7  C   UNL     1      21.672   4.178  52.131  1.00  0.00    +0.027 C 
ENDBRANCH   5   6
BRANCH   5   8
ATOM      8  C   UNL     1      24.616   4.792  49.992  1.00  0.00    +0.038 A 
ATOM      9  C   UNL     1      25.236   3.528  50.009  1.00  0.00    +0.026 A 
ATOM     10  C   UNL     1      25.372   5.833  49.424  1.00  0.00    +0.041 A 
ATOM     11  C   UNL     1      26.522   3.312  49.495  1.00  0.00    +0.003 A 
ATOM     12  C   UNL     1      26.658   5.624  48.909  1.00  0.00    +0.020 A 
ATOM     13  C   UNL     1      27.238   4.364  48.941  1.00  0.00    +0.016 A 
ATOM     14 Br   UNL     1      27.614   7.075  48.160  1.00  0.00    -0.051 Br
ENDBRANCH   5   8
ENDBRANCH   4   5
ENDBRANCH   3   4
ENDBRANCH   1   3
BRANCH   2  15
ATOM     15  N   UNL     1      21.523   1.325  48.552  1.00  0.00    -0.260 N 
ATOM     16  H   UNL     1      21.737   0.549  47.937  1.00  0.00    +0.192 HD
BRANCH  15  17
ATOM     17  C   UNL     1      21.127   0.991  49.858  1.00  0.00    +0.059 A 
ATOM     18  C   UNL     1      19.803   0.719  50.198  1.00  0.00    +0.030 A 
ATOM     19  C   UNL     1      22.100   0.807  50.846  1.00  0.00    +0.040 A 
ATOM     20  C   UNL     1      19.463   0.338  51.502  1.00  0.00    +0.031 A 
ATOM     21  C   UNL     1      21.760   0.408  52.169  1.00  0.00    +0.029 A 
ATOM     22  C   UNL     1      20.417   0.187  52.497  1.00  0.00    +0.074 A 
ATOM     23  C   UNL     1      22.664   0.214  53.230  1.00  0.00    +0.082 A 
ATOM     24  N   UNL     1      20.015  -0.168  53.722  1.00  0.00    -0.236 NA
ATOM     25  N   UNL     1      22.273  -0.127  54.478  1.00  0.00    -0.236 NA
ATOM     26  C   UNL     1      20.962  -0.303  54.656  1.00  0.00    +0.223 A 
BRANCH  23  27
ATOM     27  C   UNL     1      24.122   0.362  53.094  1.00  0.00    +0.002 A 
ATOM     28  C   UNL     1      24.716   1.635  53.130  1.00  0.00    +0.010 A 
ATOM     29  C   UNL     1      24.957  -0.759  52.954  1.00  0.00    +0.030 A 
ATOM     30  C   UNL     1      26.098   1.790  53.006  1.00  0.00    +0.002 A 
ATOM     31  C   UNL     1      26.339  -0.600  52.831  1.00  0.00    +0.041 A 
ATOM     32  C   UNL     1      26.912   0.669  52.852  1.00  0.00    +0.020 A 
ATOM     33 Cl   UNL     1      27.341  -1.987  52.646  1.00  0.00    -0.084 Cl
ENDBRANCH  23  27
ENDBRANCH  15  17
ENDBRANCH   2  15
TORSDOF 8
ENDMDL
MODEL 2
REMARK VINA RESULT:    -7.825      1.553      2.356
REMARK INTER + INTRA:         -13.921
REMARK INTER:                 -12.765
REMARK INTRA:                  -1.156
REMARK UNBOUND:                -2.436
REMARK SMILES CCN(CC/N=N/Nc1ccc2ncnc(-c3cccc(Cl)c3)c2c1)c1cccc(Br)c1
REMARK SMILES IDX 6 1 7 2 5 3 4 4 3 5 2 6 1 7 26 8 27 9 32 10 28 11 30 12
REMARK SMILES IDX 29 13 31 14 8 15 9 17 10 18 25 19 11 20 24 21 12 22 16 23
REMARK SMILES IDX 13 24 15 25 14 26 17 27 18 28 23 29 19 30 21 31 20 32 22 33
REMARK H PARENT 8 16
ROOT
ATOM      1  N   UNL     1      22.366   3.615  51.155  1.00  0.00    -0.169 NA
ATOM      2  N   UNL     1      21.598   2.807  50.604  1.00  0.00    -0.075 NA
ENDROOT
BRANCH   1   3
ATOM      3  C   UNL     1      21.775   4.963  51.232  1.00  0.00    +0.190 C 
BRANCH   3   4
ATOM      4  C   UNL     1      22.841   6.012  50.889  1.00  0.00    +0.142 C 
BRANCH   4   5
ATOM      5  N   UNL     1      23.409   5.812  49.542  1.00  0.00    -0.370 N 
BRANCH   5   6
ATOM      6  C   UNL     1      22.505   6.044  48.408  1.00  0.00    +0.113 C 
ATOM      7  C   UNL     1      22.371   4.799  47.544  1.00  0.00    +0.027 C 
ENDBRANCH   5   6
BRANCH   5   8
ATOM      8  C   UNL     1      24.724   5.396  49.356  1.00  0.00    +0.038 A 
ATOM      9  C   UNL     1      25.156   4.101  49.699  1.00  0.00    +0.026 A 
ATOM     10  C   UNL     1      25.707   6.242  48.810  1.00  0.00    +0.041 A 
ATOM     11  C   UNL     1      26.477   3.672  49.512  1.00  0.00    +0.003 A 
ATOM     12  C   UNL     1      27.030   5.819  48.621  1.00  0.00    +0.020 A 
ATOM     13  C   UNL     1      27.421   4.534  48.970  1.00  0.00    +0.016 A 
ATOM     14 Br   UNL     1      28.297   7.014  47.881  1.00  0.00    -0.051 Br
ENDBRANCH   5   8
ENDBRANCH   4   5
ENDBRANCH   3   4
ENDBRANCH   1   3
BRANCH   2  15
ATOM     15  N   UNL     1      22.248   1.631  50.588  1.00  0.00    -0.260 N 
ATOM     16  H   UNL     1      23.070   1.602  49.996  1.00  0.00    +0.192 HD
BRANCH  15  17
ATOM     17  C   UNL     1      22.305   0.868  51.766  1.00  0.00    +0.059 A 
ATOM     18  C   UNL     1      21.212   0.157  52.259  1.00  0.00    +0.030 A 
ATOM     19  C   UNL     1      23.531   0.710  52.424  1.00  0.00    +0.040 A 
ATOM     20  C   UNL     1      21.332  -0.633  53.409  1.00  0.00    +0.031 A 
ATOM     21  C   UNL     1      23.659  -0.103  53.585  1.00  0.00    +0.029 A 
ATOM     22  C   UNL     1      22.534  -0.769  54.086  1.00  0.00    +0.074 A 
ATOM     23  C   UNL     1      24.841  -0.310  54.320  1.00  0.00    +0.082 A 
ATOM     24  N   UNL     1      22.567  -1.531  55.185  1.00  0.00    -0.236 NA
ATOM     25  N   UNL     1      24.889  -1.062  55.442  1.00  0.00    -0.236 NA
ATOM     26  C   UNL     1      23.743  -1.638  55.813  1.00  0.00    +0.223 A 
BRANCH  23  27
ATOM     27  C   UNL     1      26.141   0.270  53.950  1.00  0.00    +0.002 A 
ATOM     28  C   UNL     1      26.268   1.651  53.723  1.00  0.00    +0.010 A 
ATOM     29  C   UNL     1      27.291  -0.531  53.841  1.00  0.00    +0.030 A 
ATOM     30  C   UNL     1      27.498   2.215  53.374  1.00  0.00    +0.002 A 
ATOM     31  C   UNL     1      28.517   0.036  53.492  1.00  0.00    +0.041 A 
ATOM     32  C   UNL     1      28.625   1.404  53.255  1.00  0.00    +0.020 A 
ATOM     33 Cl   UNL     1      29.909  -0.967  53.350  1.00  0.00    -0.084 Cl
ENDBRANCH  23  27
ENDBRANCH  15  17
ENDBRANCH   2  15
TORSDOF 8
ENDMDL
MODEL 3
REMARK VINA RESULT:    -7.628      2.963      5.142
REMARK INTER + INTRA:         -13.631
REMARK INTER:                 -10.818
REMARK INTRA:                  -2.813
REMARK UNBOUND:                -2.436
REMARK SMILES CCN(CC/N=N/Nc1ccc2ncnc(-c3cccc(Cl)c3)c2c1)c1cccc(Br)c1
REMARK SMILES IDX 6 1 7 2 5 3 4 4 3 5 2 6 1 7 26 8 27 9 32 10 28 11 30 12
REMARK SMILES IDX 29 13 31 14 8 15 9 17 10 18 25 19 11 20 24 21 12 22 16 23
REMARK SMILES IDX 13 24 15 25 14 26 17 27 18 28 23 29 19 30 21 31 20 32 22 33
REMARK H PARENT 8 16
ROOT
ATOM      1  N   UNL     1      26.796   3.503  49.872  1.00  0.00    -0.169 NA
ATOM      2  N   UNL     1      26.062   3.154  50.813  1.00  0.00    -0.075 NA
ENDROOT
BRANCH   1   3
ATOM      3  C   UNL     1      26.356   4.780  49.282  1.00  0.00    +0.190 C 
BRANCH   3   4
ATOM      4  C   UNL     1      24.969   5.147  49.827  1.00  0.00    +0.142 C 
BRANCH   4   5
ATOM      5  N   UNL     1      23.949   5.208  48.763  1.00  0.00    -0.370 N 
BRANCH   5   6
ATOM      6  C   UNL     1      23.943   6.416  47.928  1.00  0.00    +0.113 C 
ATOM      7  C   UNL     1      23.406   7.615  48.694  1.00  0.00    +0.027 C 
ENDBRANCH   5   6
BRANCH   5   8
ATOM      8  C   UNL     1      23.020   4.187  48.581  1.00  0.00    +0.038 A 
ATOM      9  C   UNL     1      23.262   2.868  49.010  1.00  0.00    +0.026 A 
ATOM     10  C   UNL     1      21.777   4.407  47.959  1.00  0.00    +0.041 A 
ATOM     11  C   UNL     1      22.331   1.835  48.833  1.00  0.00    +0.003 A 
ATOM     12  C   UNL     1      20.843   3.379  47.779  1.00  0.00    +0.020 A 
ATOM     13  C   UNL     1      21.114   2.090  48.216  1.00  0.00    +0.016 A 
ATOM     14 Br   UNL     1      19.191   3.752  46.933  1.00  0.00    -0.051 Br
ENDBRANCH   5   8
ENDBRANCH   4   5
ENDBRANCH   3   4
ENDBRANCH   1   3
BRANCH   2  15
ATOM     15  N   UNL     1      26.559   1.986  51.256  1.00  0.00    -0.260 N 
ATOM     16  H   UNL     1      27.550   1.993  51.467  1.00  0.00    +0.192 HD
BRANCH  15  17
ATOM     17  C   UNL     1      25.757   1.167  52.068  1.00  0.00    +0.059 A 
ATOM     18  C   UNL     1      26.280   0.148  52.862  1.00  0.00    +0.030 A 
ATOM     19  C   UNL     1      24.391   1.444  52.187  1.00  0.00    +0.040 A 
ATOM     20  C   UNL     1      25.448  -0.607  53.697  1.00  0.00    +0.031 A 
ATOM     21  C   UNL     1      23.544   0.687  53.044  1.00  0.00    +0.029 A 
ATOM     22  C   UNL     1      24.087  -0.363  53.795  1.00  0.00    +0.074 A 
ATOM     23  C   UNL     1      22.161   0.880  53.218  1.00  0.00    +0.082 A 
ATOM     24  N   UNL     1      23.354  -1.134  54.606  1.00  0.00    -0.236 NA
ATOM     25  N   UNL     1      21.402   0.098  54.018  1.00  0.00    -0.236 NA
ATOM     26  C   UNL     1      22.045  -0.870  54.675  1.00  0.00    +0.223 A 
BRANCH  23  27
ATOM     27  C   UNL     1      21.398   1.945  52.549  1.00  0.00    +0.002 A 
ATOM     28  C   UNL     1      20.097   1.703  52.077  1.00  0.00    +0.010 A 
ATOM     29  C   UNL     1      21.935   3.234  52.389  1.00  0.00    +0.030 A 
ATOM     30  C   UNL     1      19.360   2.706  51.443  1.00  0.00    +0.002 A 
ATOM     31  C   UNL     1      21.196   4.234  51.755  1.00  0.00    +0.041 A 
ATOM     32  C   UNL     1      19.913   3.975  51.278  1.00  0.00    +0.020 A 
ATOM     33 Cl   UNL     1      21.878   5.801  51.557  1.00  0.00    -0.084 Cl
ENDBRANCH  23  27
ENDBRANCH  15  17
ENDBRANCH   2  15
TORSDOF 8
ENDMDL
MODEL 4
REMARK VINA RESULT:    -7.511      3.205      5.736
REMARK INTER + INTRA:         -13.460
REMARK INTER:                 -10.805
REMARK INTRA:                  -2.655
REMARK UNBOUND:                -2.436
REMARK SMILES CCN(CC/N=N/Nc1ccc2ncnc(-c3cccc(Cl)c3)c2c1)c1cccc(Br)c1
REMARK SMILES IDX 6 1 7 2 5 3 4 4 3 5 2 6 1 7 26 8 27 9 32 10 28 11 30 12
REMARK SMILES IDX 29 13 31 14 8 15 9 17 10 18 25 19 11 20 24 21 12 22 16 23
REMARK SMILES IDX 13 24 15 25 14 26 17 27 18 28 23 29 19 30 21 31 20 32 22 33
REMARK H PARENT 8 16
ROOT
ATOM      1  N   UNL     1      17.481  -0.324  52.379  1.00  0.00    -0.169 NA
ATOM      2  N   UNL     1      18.667  -0.656  52.207  1.00  0.00    -0.075 NA
ENDROOT
BRANCH   1   3
ATOM      3  C   UNL     1      16.787  -0.093  51.099  1.00  0.00    +0.190 C 
BRANCH   3   4
ATOM      4  C   UNL     1      17.597   0.891  50.246  1.00  0.00    +0.142 C 
BRANCH   4   5
ATOM      5  N   UNL     1      17.462   2.283  50.718  1.00  0.00    -0.370 N 
BRANCH   5   6
ATOM      6  C   UNL     1      16.095   2.773  50.934  1.00  0.00    +0.113 C 
ATOM      7  C   UNL     1      16.060   3.865  51.993  1.00  0.00    +0.027 C 
ENDBRANCH   5   6
BRANCH   5   8
ATOM      8  C   UNL     1      18.572   3.099  50.918  1.00  0.00    +0.038 A 
ATOM      9  C   UNL     1      19.466   2.898  51.988  1.00  0.00    +0.026 A 
ATOM     10  C   UNL     1      18.876   4.174  50.064  1.00  0.00    +0.041 A 
ATOM     11  C   UNL     1      20.589   3.712  52.195  1.00  0.00    +0.003 A 
ATOM     12  C   UNL     1      19.996   4.992  50.266  1.00  0.00    +0.020 A 
ATOM     13  C   UNL     1      20.857   4.765  51.331  1.00  0.00    +0.016 A 
ATOM     14 Br   UNL     1      20.339   6.421  49.074  1.00  0.00    -0.051 Br
ENDBRANCH   5   8
ENDBRANCH   4   5
ENDBRANCH   3   4
ENDBRANCH   1   3
BRANCH   2  15
ATOM     15  N   UNL     1      19.185  -0.828  53.435  1.00  0.00    -0.260 N 
ATOM     16  H   UNL     1      18.730  -1.538  53.997  1.00  0.00    +0.192 HD
BRANCH  15  17
ATOM     17  C   UNL     1      20.570  -0.684  53.618  1.00  0.00    +0.059 A 
ATOM     18  C   UNL     1      21.266  -1.319  54.644  1.00  0.00    +0.030 A 
ATOM     19  C   UNL     1      21.317   0.030  52.674  1.00  0.00    +0.040 A 
ATOM     20  C   UNL     1      22.656  -1.188  54.754  1.00  0.00    +0.031 A 
ATOM     21  C   UNL     1      22.731   0.155  52.776  1.00  0.00    +0.029 A 
ATOM     22  C   UNL     1      23.400  -0.454  53.844  1.00  0.00    +0.074 A 
ATOM     23  C   UNL     1      23.562   0.863  51.888  1.00  0.00    +0.082 A 
ATOM     24  N   UNL     1      24.722  -0.364  54.022  1.00  0.00    -0.236 NA
ATOM     25  N   UNL     1      24.897   0.979  52.062  1.00  0.00    -0.236 NA
ATOM     26  C   UNL     1      25.408   0.352  53.125  1.00  0.00    +0.223 A 
BRANCH  23  27
ATOM     27  C   UNL     1      23.069   1.549  50.684  1.00  0.00    +0.002 A 
ATOM     28  C   UNL     1      21.975   1.035  49.966  1.00  0.00    +0.010 A 
ATOM     29  C   UNL     1      23.654   2.746  50.236  1.00  0.00    +0.030 A 
ATOM     30  C   UNL     1      21.494   1.678  48.824  1.00  0.00    +0.002 A 
ATOM     31  C   UNL     1      23.171   3.386  49.094  1.00  0.00    +0.041 A 
ATOM     32  C   UNL     1      22.097   2.855  48.384  1.00  0.00    +0.020 A 
ATOM     33 Cl   UNL     1      23.914   4.842  48.556  1.00  0.00    -0.084 Cl
ENDBRANCH  23  27
ENDBRANCH  15  17
ENDBRANCH   2  15
TORSDOF 8
ENDMDL
MODEL 5
REMARK VINA RESULT:    -7.467      1.799      2.782
REMARK INTER + INTRA:         -13.395
REMARK INTER:                 -12.104
REMARK INTRA:                  -1.290
REMARK UNBOUND:                -2.436
REMARK SMILES CCN(CC/N=N/Nc1ccc2ncnc(-c3cccc(Cl)c3)c2c1)c1cccc(Br)c1
REMARK SMILES IDX 6 1 7 2 5 3 4 4 3 5 2 6 1 7 26 8 27 9 32 10 28 11 30 12
REMARK SMILES IDX 29 13 31 14 8 15 9 17 10 18 25 19 11 20 24 21 12 22 16 23
REMARK SMILES IDX 13 24 15 25 14 26 17 27 18 28 23 29 19 30 21 31 20 32 22 33
REMARK H PARENT 8 16
ROOT
ATOM      1  N   UNL     1      22.329   3.477  50.500  1.00  0.00    -0.169 NA
ATOM      2  N   UNL     1      23.016   2.472  50.247  1.00  0.00    -0.075 NA
ENDROOT
BRANCH   1   3
ATOM      3  C   UNL     1      23.113   4.719  50.372  1.00  0.00    +0.190 C 
BRANCH   3   4
ATOM      4  C   UNL     1      23.921   4.684  49.069  1.00  0.00    +0.142 C 
BRANCH   4   5
ATOM      5  N   UNL     1      25.349   4.983  49.287  1.00  0.00    -0.370 N 
BRANCH   5   6
ATOM      6  C   UNL     1      26.043   4.171  50.295  1.00  0.00    +0.113 C 
ATOM      7  C   UNL     1      26.490   2.836  49.717  1.00  0.00    +0.027 C 
ENDBRANCH   5   6
BRANCH   5   8
ATOM      8  C   UNL     1      25.998   6.003  48.596  1.00  0.00    +0.038 A 
ATOM      9  C   UNL     1      25.293   7.035  47.948  1.00  0.00    +0.026 A 
ATOM     10  C   UNL     1      27.400   6.071  48.504  1.00  0.00    +0.041 A 
ATOM     11  C   UNL     1      25.937   8.068  47.253  1.00  0.00    +0.003 A 
ATOM     12  C   UNL     1      28.050   7.100  47.810  1.00  0.00    +0.020 A 
ATOM     13  C   UNL     1      27.323   8.103  47.183  1.00  0.00    +0.016 A 
ATOM     14 Br   UNL     1      29.940   7.125  47.729  1.00  0.00    -0.051 Br
ENDBRANCH   5   8
ENDBRANCH   4   5
ENDBRANCH   3   4
ENDBRANCH   1   3
BRANCH   2  15
ATOM     15  N   UNL     1      22.198   1.417  50.405  1.00  0.00    -0.260 N 
ATOM     16  H   UNL     1      22.043   0.865  49.569  1.00  0.00    +0.192 HD
BRANCH  15  17
ATOM     17  C   UNL     1      22.221   0.712  51.619  1.00  0.00    +0.059 A 
ATOM     18  C   UNL     1      21.107   0.042  52.124  1.00  0.00    +0.030 A 
ATOM     19  C   UNL     1      23.430   0.568  52.308  1.00  0.00    +0.040 A 
ATOM     20  C   UNL     1      21.193  -0.693  53.313  1.00  0.00    +0.031 A 
ATOM     21  C   UNL     1      23.524  -0.189  53.510  1.00  0.00    +0.029 A 
ATOM     22  C   UNL     1      22.379  -0.812  54.021  1.00  0.00    +0.074 A 
ATOM     23  C   UNL     1      24.688  -0.377  54.278  1.00  0.00    +0.082 A 
ATOM     24  N   UNL     1      22.379  -1.521  55.155  1.00  0.00    -0.236 NA
ATOM     25  N   UNL     1      24.702  -1.074  55.436  1.00  0.00    -0.236 NA
ATOM     26  C   UNL     1      23.541  -1.614  55.812  1.00  0.00    +0.223 A 
BRANCH  23  27
ATOM     27  C   UNL     1      26.004   0.165  53.905  1.00  0.00    +0.002 A 
ATOM     28  C   UNL     1      26.187   1.549  53.744  1.00  0.00    +0.010 A 
ATOM     29  C   UNL     1      27.115  -0.678  53.730  1.00  0.00    +0.030 A 
ATOM     30  C   UNL     1      27.432   2.077  53.395  1.00  0.00    +0.002 A 
ATOM     31  C   UNL     1      28.357  -0.147  53.380  1.00  0.00    +0.041 A 
ATOM     32  C   UNL     1      28.520   1.225  53.208  1.00  0.00    +0.020 A 
ATOM     33 Cl   UNL     1      29.700  -1.200  53.155  1.00  0.00    -0.084 Cl
ENDBRANCH  23  27
ENDBRANCH  15  17
ENDBRANCH   2  15
TORSDOF 8
ENDMDL
MODEL 6
REMARK VINA RESULT:    -7.268      2.776      5.155
REMARK INTER + INTRA:         -13.103
REMARK INTER:                 -11.477
REMARK INTRA:                  -1.626
REMARK UNBOUND:                -2.436
REMARK SMILES CCN(CC/N=N/Nc1ccc2ncnc(-c3cccc(Cl)c3)c2c1)c1cccc(Br)c1
REMARK SMILES IDX 6 1 7 2 5 3 4 4 3 5 2 6 1 7 26 8 27 9 32 10 28 11 30 12
REMARK SMILES IDX 29 13 31 14 8 15 9 17 10 18 25 19 11 20 24 21 12 22 16 23
REMARK SMILES IDX 13 24 15 25 14 26 17 27 18 28 23 29 19 30 21 31 20 32 22 33
REMARK H PARENT 8 16
ROOT
ATOM      1  N   UNL     1      25.477   2.987  49.805  1.00  0.00    -0.169 NA
ATOM      2  N   UNL     1      25.811   2.993  51.004  1.00  0.00    -0.075 NA
ENDROOT
BRANCH   1   3
ATOM      3  C   UNL     1      24.742   4.210  49.437  1.00  0.00    +0.190 C 
BRANCH   3   4
ATOM      4  C   UNL     1      24.985   5.294  50.495  1.00  0.00    +0.142 C 
BRANCH   4   5
ATOM      5  N   UNL     1      23.742   5.985  50.885  1.00  0.00    -0.370 N 
BRANCH   5   6
ATOM      6  C   UNL     1      23.827   7.441  51.058  1.00  0.00    +0.113 C 
ATOM      7  C   UNL     1      23.751   8.162  49.721  1.00  0.00    +0.027 C 
ENDBRANCH   5   6
BRANCH   5   8
ATOM      8  C   UNL     1      22.556   5.289  51.107  1.00  0.00    +0.038 A 
ATOM      9  C   UNL     1      22.427   4.339  52.138  1.00  0.00    +0.026 A 
ATOM     10  C   UNL     1      21.410   5.492  50.317  1.00  0.00    +0.041 A 
ATOM     11  C   UNL     1      21.236   3.637  52.371  1.00  0.00    +0.003 A 
ATOM     12  C   UNL     1      20.217   4.793  50.545  1.00  0.00    +0.020 A 
ATOM     13  C   UNL     1      20.124   3.864  51.572  1.00  0.00    +0.016 A 
ATOM     14 Br   UNL     1      18.715   5.120  49.441  1.00  0.00    -0.051 Br
ENDBRANCH   5   8
ENDBRANCH   4   5
ENDBRANCH   3   4
ENDBRANCH   1   3
BRANCH   2  15
ATOM     15  N   UNL     1      26.459   1.835  51.213  1.00  0.00    -0.260 N 
ATOM     16  H   UNL     1      27.445   1.846  50.978  1.00  0.00    +0.192 HD
BRANCH  15  17
ATOM     17  C   UNL     1      26.091   1.034  52.307  1.00  0.00    +0.059 A 
ATOM     18  C   UNL     1      26.982   0.685  53.320  1.00  0.00    +0.030 A 
ATOM     19  C   UNL     1      24.752   0.658  52.462  1.00  0.00    +0.040 A 
ATOM     20  C   UNL     1      26.554  -0.071  54.419  1.00  0.00    +0.031 A 
ATOM     21  C   UNL     1      24.312  -0.100  53.584  1.00  0.00    +0.029 A 
ATOM     22  C   UNL     1      25.237  -0.478  54.564  1.00  0.00    +0.074 A 
ATOM     23  C   UNL     1      22.995  -0.537  53.818  1.00  0.00    +0.082 A 
ATOM     24  N   UNL     1      24.907  -1.208  55.635  1.00  0.00    -0.236 NA
ATOM     25  N   UNL     1      22.648  -1.291  54.885  1.00  0.00    -0.236 NA
ATOM     26  C   UNL     1      23.628  -1.584  55.742  1.00  0.00    +0.223 A 
BRANCH  23  27
ATOM     27  C   UNL     1      21.864  -0.223  52.931  1.00  0.00    +0.002 A 
ATOM     28  C   UNL     1      20.545  -0.272  53.413  1.00  0.00    +0.010 A 
ATOM     29  C   UNL     1      22.071   0.158  51.595  1.00  0.00    +0.030 A 
ATOM     30  C   UNL     1      19.462   0.027  52.583  1.00  0.00    +0.002 A 
ATOM     31  C   UNL     1      20.987   0.456  50.768  1.00  0.00    +0.041 A 
ATOM     32  C   UNL     1      19.684   0.388  51.255  1.00  0.00    +0.020 A 
ATOM     33 Cl   UNL     1      21.263   0.907  49.131  1.00  0.00    -0.084 Cl
ENDBRANCH  23  27
ENDBRANCH  15  17
ENDBRANCH   2  15
TORSDOF 8
ENDMDL
MODEL 7
REMARK VINA RESULT:    -7.168      2.969      5.130
REMARK INTER + INTRA:         -12.956
REMARK INTER:                 -10.498
REMARK INTRA:                  -2.459
REMARK UNBOUND:                -2.436
REMARK SMILES CCN(CC/N=N/Nc1ccc2ncnc(-c3cccc(Cl)c3)c2c1)c1cccc(Br)c1
REMARK SMILES IDX 6 1 7 2 5 3 4 4 3 5 2 6 1 7 26 8 27 9 32 10 28 11 30 12
REMARK SMILES IDX 29 13 31 14 8 15 9 17 10 18 25 19 11 20 24 21 12 22 16 23
REMARK SMILES IDX 13 24 15 25 14 26 17 27 18 28 23 29 19 30 21 31 20 32 22 33
REMARK H PARENT 8 16
ROOT
ATOM      1  N   UNL     1      17.714   0.613  51.997  1.00  0.00    -0.169 NA
ATOM      2  N   UNL     1      18.934   0.725  52.215  1.00  0.00    -0.075 NA
ENDROOT
BRANCH   1   3
ATOM      3  C   UNL     1      17.202   1.724  51.176  1.00  0.00    +0.190 C 
BRANCH   3   4
ATOM      4  C   UNL     1      17.720   1.582  49.739  1.00  0.00    +0.142 C 
BRANCH   4   5
ATOM      5  N   UNL     1      18.551   2.729  49.327  1.00  0.00    -0.370 N 
BRANCH   5   6
ATOM      6  C   UNL     1      17.993   4.066  49.573  1.00  0.00    +0.113 C 
ATOM      7  C   UNL     1      16.853   4.373  48.614  1.00  0.00    +0.027 C 
ENDBRANCH   5   6
BRANCH   5   8
ATOM      8  C   UNL     1      19.787   2.554  48.710  1.00  0.00    +0.038 A 
ATOM      9  C   UNL     1      20.674   1.528  49.088  1.00  0.00    +0.026 A 
ATOM     10  C   UNL     1      20.229   3.389  47.668  1.00  0.00    +0.041 A 
ATOM     11  C   UNL     1      21.918   1.342  48.470  1.00  0.00    +0.003 A 
ATOM     12  C   UNL     1      21.471   3.209  47.047  1.00  0.00    +0.020 A 
ATOM     13  C   UNL     1      22.321   2.185  47.443  1.00  0.00    +0.016 A 
ATOM     14 Br   UNL     1      21.998   4.373  45.650  1.00  0.00    -0.051 Br
ENDBRANCH   5   8
ENDBRANCH   4   5
ENDBRANCH   3   4
ENDBRANCH   1   3
BRANCH   2  15
ATOM     15  N   UNL     1      19.273  -0.333  52.971  1.00  0.00    -0.260 N 
ATOM     16  H   UNL     1      18.803  -1.199  52.733  1.00  0.00    +0.192 HD
BRANCH  15  17
ATOM     17  C   UNL     1      20.597  -0.450  53.425  1.00  0.00    +0.059 A 
ATOM     18  C   UNL     1      21.019  -1.482  54.262  1.00  0.00    +0.030 A 
ATOM     19  C   UNL     1      21.571   0.429  52.939  1.00  0.00    +0.040 A 
ATOM     20  C   UNL     1      22.361  -1.588  54.646  1.00  0.00    +0.031 A 
ATOM     21  C   UNL     1      22.938   0.318  53.318  1.00  0.00    +0.029 A 
ATOM     22  C   UNL     1      23.327  -0.700  54.197  1.00  0.00    +0.074 A 
ATOM     23  C   UNL     1      23.982   1.161  52.895  1.00  0.00    +0.082 A 
ATOM     24  N   UNL     1      24.587  -0.858  54.617  1.00  0.00    -0.236 NA
ATOM     25  N   UNL     1      25.257   1.027  53.324  1.00  0.00    -0.236 NA
ATOM     26  C   UNL     1      25.492   0.016  54.164  1.00  0.00    +0.223 A 
BRANCH  23  27
ATOM     27  C   UNL     1      23.798   2.272  51.948  1.00  0.00    +0.002 A 
ATOM     28  C   UNL     1      24.747   2.516  50.941  1.00  0.00    +0.010 A 
ATOM     29  C   UNL     1      22.662   3.097  52.007  1.00  0.00    +0.030 A 
ATOM     30  C   UNL     1      24.583   3.565  50.034  1.00  0.00    +0.002 A 
ATOM     31  C   UNL     1      22.501   4.145  51.099  1.00  0.00    +0.041 A 
ATOM     32  C   UNL     1      23.458   4.384  50.115  1.00  0.00    +0.020 A 
ATOM     33 Cl   UNL     1      21.109   5.151  51.198  1.00  0.00    -0.084 Cl
ENDBRANCH  23  27
ENDBRANCH  15  17
ENDBRANCH   2  15
TORSDOF 8
ENDMDL
MODEL 8
REMARK VINA RESULT:    -7.107      2.904      5.334
REMARK INTER + INTRA:         -12.867
REMARK INTER:                 -10.804
REMARK INTRA:                  -2.063
REMARK UNBOUND:                -2.436
REMARK SMILES CCN(CC/N=N/Nc1ccc2ncnc(-c3cccc(Cl)c3)c2c1)c1cccc(Br)c1
REMARK SMILES IDX 6 1 7 2 5 3 4 4 3 5 2 6 1 7 26 8 27 9 32 10 28 11 30 12
REMARK SMILES IDX 29 13 31 14 8 15 9 17 10 18 25 19 11 20 24 21 12 22 16 23
REMARK SMILES IDX 13 24 15 25 14 26 17 27 18 28 23 29 19 30 21 31 20 32 22 33
REMARK H PARENT 8 16
ROOT
ATOM      1  N   UNL     1      20.061   3.978  52.280  1.00  0.00    -0.169 NA
ATOM      2  N   UNL     1      20.845   4.474  51.451  1.00  0.00    -0.075 NA
ENDROOT
BRANCH   1   3
ATOM      3  C   UNL     1      18.763   3.639  51.668  1.00  0.00    +0.190 C 
BRANCH   3   4
ATOM      4  C   UNL     1      18.632   2.115  51.553  1.00  0.00    +0.142 C 
BRANCH   4   5
ATOM      5  N   UNL     1      18.728   1.648  50.157  1.00  0.00    -0.370 N 
BRANCH   5   6
ATOM      6  C   UNL     1      17.549   0.964  49.611  1.00  0.00    +0.113 C 
ATOM      7  C   UNL     1      17.209  -0.281  50.417  1.00  0.00    +0.027 C 
ENDBRANCH   5   6
BRANCH   5   8
ATOM      8  C   UNL     1      19.888   1.820  49.406  1.00  0.00    +0.038 A 
ATOM      9  C   UNL     1      21.108   1.217  49.764  1.00  0.00    +0.026 A 
ATOM     10  C   UNL     1      19.915   2.604  48.238  1.00  0.00    +0.041 A 
ATOM     11  C   UNL     1      22.280   1.381  49.012  1.00  0.00    +0.003 A 
ATOM     12  C   UNL     1      21.083   2.772  47.482  1.00  0.00    +0.020 A 
ATOM     13  C   UNL     1      22.269   2.162  47.864  1.00  0.00    +0.016 A 
ATOM     14 Br   UNL     1      21.042   3.843  45.923  1.00  0.00    -0.051 Br
ENDBRANCH   5   8
ENDBRANCH   4   5
ENDBRANCH   3   4
ENDBRANCH   1   3
BRANCH   2  15
ATOM     15  N   UNL     1      21.975   4.743  52.127  1.00  0.00    -0.260 N 
ATOM     16  H   UNL     1      21.842   5.025  53.091  1.00  0.00    +0.192 HD
BRANCH  15  17
ATOM     17  C   UNL     1      23.128   3.989  51.855  1.00  0.00    +0.059 A 
ATOM     18  C   UNL     1      24.226   4.509  51.171  1.00  0.00    +0.030 A 
ATOM     19  C   UNL     1      23.246   2.698  52.382  1.00  0.00    +0.040 A 
ATOM     20  C   UNL     1      25.376   3.735  50.970  1.00  0.00    +0.031 A 
ATOM     21  C   UNL     1      24.418   1.913  52.189  1.00  0.00    +0.029 A 
ATOM     22  C   UNL     1      25.488   2.443  51.458  1.00  0.00    +0.074 A 
ATOM     23  C   UNL     1      24.621   0.605  52.666  1.00  0.00    +0.082 A 
ATOM     24  N   UNL     1      26.613   1.761  51.215  1.00  0.00    -0.236 NA
ATOM     25  N   UNL     1      25.744  -0.105  52.414  1.00  0.00    -0.236 NA
ATOM     26  C   UNL     1      26.686   0.518  51.700  1.00  0.00    +0.223 A 
BRANCH  23  27
ATOM     27  C   UNL     1      23.639  -0.126  53.481  1.00  0.00    +0.002 A 
ATOM     28  C   UNL     1      24.036  -0.782  54.659  1.00  0.00    +0.010 A 
ATOM     29  C   UNL     1      22.281  -0.165  53.124  1.00  0.00    +0.030 A 
ATOM     30  C   UNL     1      23.113  -1.476  55.445  1.00  0.00    +0.002 A 
ATOM     31  C   UNL     1      21.362  -0.860  53.911  1.00  0.00    +0.041 A 
ATOM     32  C   UNL     1      21.773  -1.519  55.067  1.00  0.00    +0.020 A 
ATOM     33 Cl   UNL     1      19.706  -0.907  53.445  1.00  0.00    -0.084 Cl
ENDBRANCH  23  27
ENDBRANCH  15  17
ENDBRANCH   2  15
TORSDOF 8
ENDMDL
MODEL 9
REMARK VINA RESULT:    -7.039      2.897      4.245
REMARK INTER + INTRA:         -12.767
REMARK INTER:                 -10.842
REMARK INTRA:                  -1.925
REMARK UNBOUND:                -2.436
REMARK SMILES CCN(CC/N=N/Nc1ccc2ncnc(-c3cccc(Cl)c3)c2c1)c1cccc(Br)c1
REMARK SMILES IDX 6 1 7 2 5 3 4 4 3 5 2 6 1 7 26 8 27 9 32 10 28 11 30 12
REMARK SMILES IDX 29 13 31 14 8 15 9 17 10 18 25 19 11 20 24 21 12 22 16 23
REMARK SMILES IDX 13 24 15 25 14 26 17 27 18 28 23 29 19 30 21 31 20 32 22 33
REMARK H PARENT 8 16
ROOT
ATOM      1  N   UNL     1      24.397   5.906  50.273  1.00  0.00    -0.169 NA
ATOM      2  N   UNL     1      23.549   6.025  51.175  1.00  0.00    -0.075 NA
ENDROOT
BRANCH   1   3
ATOM      3  C   UNL     1      24.058   6.723  49.095  1.00  0.00    +0.190 C 
BRANCH   3   4
ATOM      4  C   UNL     1      23.487   5.822  47.992  1.00  0.00    +0.142 C 
BRANCH   4   5
ATOM      5  N   UNL     1      22.090   5.430  48.257  1.00  0.00    -0.370 N 
BRANCH   5   6
ATOM      6  C   UNL     1      21.087   6.502  48.212  1.00  0.00    +0.113 C 
ATOM      7  C   UNL     1      21.051   7.169  46.845  1.00  0.00    +0.027 C 
ENDBRANCH   5   6
BRANCH   5   8
ATOM      8  C   UNL     1      21.744   4.117  48.564  1.00  0.00    +0.038 A 
ATOM      9  C   UNL     1      22.700   3.085  48.625  1.00  0.00    +0.026 A 
ATOM     10  C   UNL     1      20.418   3.736  48.837  1.00  0.00    +0.041 A 
ATOM     11  C   UNL     1      22.361   1.761  48.937  1.00  0.00    +0.003 A 
ATOM     12  C   UNL     1      20.073   2.414  49.149  1.00  0.00    +0.020 A 
ATOM     13  C   UNL     1      21.041   1.422  49.201  1.00  0.00    +0.016 A 
ATOM     14 Br   UNL     1      18.266   1.977  49.504  1.00  0.00    -0.051 Br
ENDBRANCH   5   8
ENDBRANCH   4   5
ENDBRANCH   3   4
ENDBRANCH   1   3
BRANCH   2  15
ATOM     15  N   UNL     1      23.964   5.234  52.179  1.00  0.00    -0.260 N 
ATOM     16  H   UNL     1      24.318   5.723  52.994  1.00  0.00    +0.192 HD
BRANCH  15  17
ATOM     17  C   UNL     1      23.284   4.030  52.425  1.00  0.00    +0.059 A 
ATOM     18  C   UNL     1      21.897   3.916  52.344  1.00  0.00    +0.030 A 
ATOM     19  C   UNL     1      24.017   2.859  52.650  1.00  0.00    +0.040 A 
ATOM     20  C   UNL     1      21.267   2.682  52.545  1.00  0.00    +0.031 A 
ATOM     21  C   UNL     1      23.381   1.601  52.842  1.00  0.00    +0.029 A 
ATOM     22  C   UNL     1      21.984   1.524  52.803  1.00  0.00    +0.074 A 
ATOM     23  C   UNL     1      24.031   0.378  53.089  1.00  0.00    +0.082 A 
ATOM     24  N   UNL     1      21.311   0.384  52.996  1.00  0.00    -0.236 NA
ATOM     25  N   UNL     1      23.366  -0.780  53.305  1.00  0.00    -0.236 NA
ATOM     26  C   UNL     1      22.034  -0.713  53.243  1.00  0.00    +0.223 A 
BRANCH  23  27
ATOM     27  C   UNL     1      25.494   0.229  53.140  1.00  0.00    +0.002 A 
ATOM     28  C   UNL     1      26.094  -1.016  52.887  1.00  0.00    +0.010 A 
ATOM     29  C   UNL     1      26.328   1.327  53.413  1.00  0.00    +0.030 A 
ATOM     30  C   UNL     1      27.482  -1.170  52.928  1.00  0.00    +0.002 A 
ATOM     31  C   UNL     1      27.714   1.169  53.454  1.00  0.00    +0.041 A 
ATOM     32  C   UNL     1      28.294  -0.075  53.217  1.00  0.00    +0.020 A 
ATOM     33 Cl   UNL     1      28.714   2.524  53.806  1.00  0.00    -0.084 Cl
ENDBRANCH  23  27
ENDBRANCH  15  17
ENDBRANCH   2  15
TORSDOF 8
ENDMDL
