REMARK SMILES Cc1cccc(-c2ccc(-c3cc(O)ccc3[N+](=O)[O-])[nH]2)c1
REMARK SMILES IDX 11 1 12 2 13 3 15 4 16 5 17 6 10 7 7 8 8 9 21 10 9 11 6 13
REMARK SMILES IDX 2 14 3 15 22 16 4 17 5 18 1 19 18 20 19 21 20 22 14 23
REMARK H PARENT 21 12 14 24
ROOT
ATOM      1  C   UNL     1      -2.725  -0.093   0.463  1.00  0.00    +0.079 A 
ATOM      2  C   UNL     1      -3.117  -1.304   1.054  1.00  0.00    +0.063 A 
ATOM      3  C   UNL     1      -4.412  -1.790   0.864  1.00  0.00    +0.116 A 
ATOM      4  C   UNL     1      -5.339  -1.096   0.091  1.00  0.00    +0.053 A 
ATOM      5  C   UNL     1      -4.974   0.108  -0.504  1.00  0.00    +0.090 A 
ATOM      6  C   UNL     1      -3.674   0.593  -0.312  1.00  0.00    +0.278 A 
ENDROOT
BRANCH   1   7
ATOM      7  C   UNL     1      -1.374   0.404   0.704  1.00  0.00    +0.053 A 
ATOM      8  C   UNL     1       0.894   0.413   0.643  1.00  0.00    +0.046 A 
ATOM      9  C   UNL     1       0.475   1.564   1.288  1.00  0.00    +0.029 A 
ATOM     10  N   UNL     1      -0.248  -0.268   0.283  1.00  0.00    -0.354 N 
ATOM     11  C   UNL     1      -0.940   1.558   1.329  1.00  0.00    +0.029 A 
ATOM     12  H   UNL     1      -0.255  -1.123  -0.256  1.00  0.00    +0.167 HD
BRANCH   8  13
ATOM     13  C   UNL     1       2.241  -0.061   0.318  1.00  0.00    -0.002 A 
ATOM     14  C   UNL     1       4.539   0.417  -0.362  1.00  0.00    -0.050 A 
ATOM     15  C   UNL     1       4.833  -0.949  -0.304  1.00  0.00    +0.003 A 
ATOM     16  C   UNL     1       3.245   0.852  -0.035  1.00  0.00    +0.013 A 
ATOM     17  C   UNL     1       3.845  -1.866   0.050  1.00  0.00    +0.001 A 
ATOM     18  C   UNL     1       2.556  -1.426   0.357  1.00  0.00    +0.010 A 
ATOM     19  C   UNL     1       5.606   1.412  -0.710  1.00  0.00    +0.044 C 
ENDBRANCH   8  13
ENDBRANCH   1   7
BRANCH   6  20
ATOM     20  N   UNL     1      -3.320   1.828  -0.978  1.00  0.00    +0.063 N 
ATOM     21  O   UNL     1      -3.782   2.873  -0.500  1.00  0.00    -0.258 OA
ATOM     22  O   UNL     1      -2.628   1.738  -2.001  1.00  0.00    -0.258 OA
ENDBRANCH   6  20
BRANCH   3  23
ATOM     23  O   UNL     1      -4.820  -2.960   1.433  1.00  0.00    -0.508 OA
ATOM     24  H   UNL     1      -4.108  -3.311   1.994  1.00  0.00    +0.293 HD
ENDBRANCH   3  23
TORSDOF 4
