REMARK SMILES CN(C(=O)c1ccccn1)c1ccc(-c2cc(O)ccc2[N+](=O)[O-])[nH]1
REMARK SMILES IDX 11 1 12 2 13 3 14 4 25 5 2 7 1 8 3 9 4 10 5 11 6 12 10 13
REMARK SMILES IDX 7 14 9 15 8 16 15 17 16 18 21 19 17 20 20 21 19 22 22 23
REMARK SMILES IDX 23 24 24 25 18 26
REMARK H PARENT 25 6 18 27
ROOT
ATOM      1  C   UNL     1       0.354  -0.701   0.259  1.00  0.00    +0.113 A 
ATOM      2  C   UNL     1      -0.034  -2.023   0.168  1.00  0.00    +0.047 A 
ATOM      3  C   UNL     1      -1.429  -2.064  -0.070  1.00  0.00    +0.031 A 
ATOM      4  C   UNL     1      -1.895  -0.764  -0.133  1.00  0.00    +0.054 A 
ATOM      5  N   UNL     1      -0.787   0.041   0.037  1.00  0.00    -0.341 N 
ATOM      6  H   UNL     1      -0.817   1.051   0.019  1.00  0.00    +0.168 HD
ENDROOT
BRANCH   1   7
ATOM      7  N   UNL     1       1.603  -0.089   0.485  1.00  0.00    -0.296 N 
ATOM      8  C   UNL     1       1.720   1.368   0.597  1.00  0.00    +0.155 C 
BRANCH   7   9
ATOM      9  C   UNL     1       2.744  -0.920   0.624  1.00  0.00    +0.277 C 
ATOM     10  O   UNL     1       2.715  -2.128   0.873  1.00  0.00    -0.267 OA
BRANCH   9  11
ATOM     11  C   UNL     1       4.115  -0.322   0.466  1.00  0.00    +0.128 A 
ATOM     12  C   UNL     1       5.182  -0.901   1.147  1.00  0.00    +0.034 A 
ATOM     13  N   UNL     1       4.264   0.725  -0.391  1.00  0.00    -0.251 NA
ATOM     14  C   UNL     1       6.457  -0.374   0.962  1.00  0.00    +0.004 A 
ATOM     15  C   UNL     1       5.516   1.208  -0.552  1.00  0.00    +0.112 A 
ATOM     16  C   UNL     1       6.630   0.700   0.098  1.00  0.00    +0.020 A 
ENDBRANCH   9  11
ENDBRANCH   7   9
ENDBRANCH   1   7
BRANCH   4  17
ATOM     17  C   UNL     1      -3.252  -0.261  -0.393  1.00  0.00    +0.079 A 
ATOM     18  C   UNL     1      -4.019  -0.913  -1.373  1.00  0.00    +0.063 A 
ATOM     19  C   UNL     1      -3.870   0.804   0.287  1.00  0.00    +0.278 A 
ATOM     20  C   UNL     1      -5.329  -0.516  -1.650  1.00  0.00    +0.116 A 
ATOM     21  C   UNL     1      -5.191   1.204   0.016  1.00  0.00    +0.090 A 
ATOM     22  C   UNL     1      -5.923   0.536  -0.963  1.00  0.00    +0.053 A 
BRANCH  19  23
ATOM     23  N   UNL     1      -3.174   1.546   1.320  1.00  0.00    +0.063 N 
ATOM     24  O   UNL     1      -2.202   2.231   0.966  1.00  0.00    -0.258 OA
ATOM     25  O   UNL     1      -3.634   1.485   2.467  1.00  0.00    -0.258 OA
ENDBRANCH  19  23
BRANCH  20  26
ATOM     26  O   UNL     1      -6.003  -1.200  -2.617  1.00  0.00    -0.508 OA
ATOM     27  H   UNL     1      -6.901  -0.839  -2.701  1.00  0.00    +0.293 HD
ENDBRANCH  20  26
ENDBRANCH   4  17
TORSDOF 6
