REMARK SMILES CN(c1ccccc1)c1ccc(-c2ccc(O)c([N+](=O)[O-])c2)[nH]1
REMARK SMILES IDX 13 1 14 2 15 3 16 4 18 5 22 6 12 7 9 8 10 9 23 10 11 11 2 13
REMARK SMILES IDX 1 14 3 15 4 16 8 17 5 18 7 19 6 20 19 21 20 22 21 23 17 24
REMARK H PARENT 23 12 17 25
ROOT
ATOM      1  C   UNL     1      -2.584  -0.168   0.220  1.00  0.00    +0.005 A 
ATOM      2  C   UNL     1      -3.043  -1.492   0.224  1.00  0.00    +0.014 A 
ATOM      3  C   UNL     1      -4.393  -1.784   0.004  1.00  0.00    +0.054 A 
ATOM      4  C   UNL     1      -5.306  -0.757  -0.223  1.00  0.00    +0.194 A 
ATOM      5  C   UNL     1      -4.863   0.571  -0.224  1.00  0.00    +0.311 A 
ATOM      6  C   UNL     1      -3.506   0.864  -0.003  1.00  0.00    +0.100 A 
ENDROOT
BRANCH   1   7
ATOM      7  C   UNL     1      -1.172   0.143   0.449  1.00  0.00    +0.047 A 
ATOM      8  C   UNL     1       1.083  -0.138   0.362  1.00  0.00    +0.110 A 
ATOM      9  C   UNL     1       0.829   1.064   0.992  1.00  0.00    +0.047 A 
ATOM     10  N   UNL     1      -0.140  -0.670   0.029  1.00  0.00    -0.341 N 
ATOM     11  C   UNL     1      -0.575   1.238   1.051  1.00  0.00    +0.030 A 
ATOM     12  H   UNL     1      -0.258  -1.510  -0.515  1.00  0.00    +0.168 HD
BRANCH   8  13
ATOM     13  N   UNL     1       2.248  -0.781   0.035  1.00  0.00    -0.331 N 
ATOM     14  C   UNL     1       2.354  -2.214   0.333  1.00  0.00    +0.152 C 
BRANCH  13  15
ATOM     15  C   UNL     1       3.479  -0.077  -0.066  1.00  0.00    +0.042 A 
ATOM     16  C   UNL     1       3.541   1.115  -0.813  1.00  0.00    +0.026 A 
ATOM     17  C   UNL     1       4.671  -0.518   0.532  1.00  0.00    +0.026 A 
ATOM     18  C   UNL     1       4.731   1.836  -0.952  1.00  0.00    +0.002 A 
ATOM     19  C   UNL     1       5.865   0.201   0.397  1.00  0.00    +0.002 A 
ATOM     20  C   UNL     1       5.894   1.377  -0.345  1.00  0.00    +0.000 A 
ENDBRANCH  13  15
ENDBRANCH   8  13
ENDBRANCH   1   7
BRANCH   5  21
ATOM     21  N   UNL     1      -5.795   1.677  -0.454  1.00  0.00    +0.066 N 
ATOM     22  O   UNL     1      -6.984   1.387  -0.666  1.00  0.00    -0.258 OA
ATOM     23  O   UNL     1      -5.351   2.832  -0.425  1.00  0.00    -0.258 OA
ENDBRANCH   5  21
BRANCH   4  24
ATOM     24  O   UNL     1      -6.597  -1.163  -0.427  1.00  0.00    -0.502 OA
ATOM     25  H   UNL     1      -7.172  -0.384  -0.581  1.00  0.00    +0.293 HD
ENDBRANCH   4  24
TORSDOF 5
