REMARK SMILES N#CC(=Cc1ccc(F)c(Cl)c1)C(N)=C(N)C(C#N)=C(C#N)C#N
REMARK SMILES IDX 1 1 2 2 3 3 4 4 13 5 15 6 14 7 16 10 17 13 18 14 20 15 19 16
REMARK SMILES IDX 21 17 23 18 22 19 24 20 5 21 6 22 12 23 7 24 10 25 8 26
REMARK SMILES IDX 11 27 9 28
REMARK H PARENT 14 8 14 9 16 11 16 12
ROOT
ATOM      1  N   UNL     1      -0.703   2.824   0.384  1.00  0.00    -0.192 NA
ATOM      2  C   UNL     1      -0.456   1.691   0.341  1.00  0.00    +0.101 C 
ATOM      3  C   UNL     1      -0.160   0.296   0.225  1.00  0.00    +0.078 C 
ATOM      4  C   UNL     1      -1.113  -0.640   0.034  1.00  0.00    +0.030 C 
ENDROOT
BRANCH   3   5
ATOM      5  C   UNL     1       1.251  -0.105   0.324  1.00  0.00    +0.074 C 
ATOM      6  C   UNL     1       2.090   0.049  -0.742  1.00  0.00    +0.076 C 
BRANCH   5   7
ATOM      7  N   UNL     1       1.633  -0.661   1.542  1.00  0.00    -0.396 N 
ATOM      8  H   UNL     1       2.235  -1.479   1.459  1.00  0.00    +0.156 HD
ATOM      9  H   UNL     1       0.846  -0.876   2.155  1.00  0.00    +0.156 HD
ENDBRANCH   5   7
BRANCH   6  10
ATOM     10  N   UNL     1       1.735   0.579  -1.972  1.00  0.00    -0.396 N 
ATOM     11  H   UNL     1       2.481   1.035  -2.494  1.00  0.00    +0.156 HD
ATOM     12  H   UNL     1       0.895   1.156  -1.973  1.00  0.00    +0.156 HD
ENDBRANCH   6  10
BRANCH   6  13
ATOM     13  C   UNL     1       3.500  -0.352  -0.604  1.00  0.00    +0.106 C 
ATOM     14  C   UNL     1       3.772  -1.737  -0.836  1.00  0.00    +0.104 C 
ATOM     15  C   UNL     1       4.476   0.505  -0.231  1.00  0.00    +0.149 C 
ATOM     16  N   UNL     1       3.982  -2.867  -0.989  1.00  0.00    -0.192 NA
ATOM     17  C   UNL     1       5.824   0.075  -0.068  1.00  0.00    +0.112 C 
ATOM     18  C   UNL     1       4.199   1.883  -0.007  1.00  0.00    +0.112 C 
ATOM     19  N   UNL     1       6.919  -0.282   0.060  1.00  0.00    -0.192 NA
ATOM     20  N   UNL     1       3.969   3.011   0.136  1.00  0.00    -0.192 NA
ENDBRANCH   6  13
ENDBRANCH   3   5
BRANCH   4  21
ATOM     21  C   UNL     1      -2.558  -0.405  -0.080  1.00  0.00    -0.023 A 
ATOM     22  C   UNL     1      -3.094   0.420  -1.080  1.00  0.00    +0.011 A 
ATOM     23  C   UNL     1      -3.424  -1.058   0.808  1.00  0.00    +0.031 A 
ATOM     24  C   UNL     1      -4.476   0.607  -1.176  1.00  0.00    +0.041 A 
ATOM     25  C   UNL     1      -4.805  -0.870   0.708  1.00  0.00    +0.077 A 
ATOM     26  C   UNL     1      -5.323  -0.038  -0.280  1.00  0.00    +0.141 A 
ATOM     27 Cl   UNL     1      -5.848  -1.681   1.811  1.00  0.00    -0.081 Cl
ATOM     28  F   UNL     1      -6.646   0.152  -0.394  1.00  0.00    -0.205 F 
ENDBRANCH   4  21
TORSDOF 5
