MODEL 1
REMARK VINA RESULT:    -9.188      0.000      0.000
REMARK INTER + INTRA:         -10.926
REMARK INTER:                 -10.262
REMARK INTRA:                  -0.664
REMARK UNBOUND:                -0.664
REMARK SMILES Cc1cccc(C=C2C(=O)N(C)c3ncnc(C=C(C#N)C#N)c32)c1
REMARK SMILES IDX 7 1 8 2 9 3 10 4 11 5 12 6 13 7 14 8 15 9 16 10 17 11 24 12
REMARK SMILES IDX 6 13 2 14 3 15 25 16 4 17 5 18 1 19 18 20 19 21 20 22 22 23
REMARK SMILES IDX 21 24 23 25
REMARK H PARENT
ROOT
ATOM      1  C   UNL     1      25.771   0.895  52.401  1.00  0.00    +0.022 C 
ATOM      2  C   UNL     1      24.577   0.459  52.836  1.00  0.00    +0.054 C 
ATOM      3  C   UNL     1      24.339  -0.466  54.009  1.00  0.00    +0.260 C 
ATOM      4  O   UNL     1      25.163  -0.920  54.779  1.00  0.00    -0.269 OA
ATOM      5  N   UNL     1      22.971  -0.681  54.010  1.00  0.00    -0.295 N 
ATOM      6  C   UNL     1      22.256  -1.506  54.945  1.00  0.00    +0.155 C 
ATOM      7  C   UNL     1      22.333   0.027  52.988  1.00  0.00    +0.147 A 
ATOM      8  N   UNL     1      21.015   0.001  52.771  1.00  0.00    -0.218 NA
ATOM      9  C   UNL     1      20.617   0.762  51.748  1.00  0.00    +0.224 A 
ATOM     10  N   UNL     1      21.415   1.528  50.976  1.00  0.00    -0.236 NA
ATOM     11  C   UNL     1      22.741   1.513  51.240  1.00  0.00    +0.079 A 
ATOM     12  C   UNL     1      23.261   0.754  52.258  1.00  0.00    +0.056 A 
ENDROOT
BRANCH   1  13
ATOM     13  C   UNL     1      27.078   0.566  52.979  1.00  0.00    -0.025 A 
ATOM     14  C   UNL     1      28.882  -1.018  53.390  1.00  0.00    -0.051 A 
ATOM     15  C   UNL     1      29.619  -0.001  54.006  1.00  0.00    +0.003 A 
ATOM     16  C   UNL     1      27.616  -0.722  52.863  1.00  0.00    +0.011 A 
ATOM     17  C   UNL     1      29.090   1.285  54.117  1.00  0.00    +0.001 A 
ATOM     18  C   UNL     1      27.825   1.569  53.606  1.00  0.00    +0.008 A 
ATOM     19  C   UNL     1      29.456  -2.397  53.249  1.00  0.00    +0.044 C 
ENDBRANCH   1  13
BRANCH  11  20
ATOM     20  C   UNL     1      23.532   2.415  50.399  1.00  0.00    +0.060 C 
ATOM     21  C   UNL     1      23.995   3.630  50.759  1.00  0.00    +0.131 C 
ATOM     22  C   UNL     1      24.787   4.364  49.832  1.00  0.00    +0.111 C 
ATOM     23  C   UNL     1      23.697   4.237  52.014  1.00  0.00    +0.111 C 
ATOM     24  N   UNL     1      25.422   4.936  49.048  1.00  0.00    -0.192 NA
ATOM     25  N   UNL     1      23.441   4.759  53.020  1.00  0.00    -0.192 NA
ENDBRANCH  11  20
TORSDOF 2
ENDMDL
MODEL 2
REMARK VINA RESULT:    -8.871      2.556      5.825
REMARK INTER + INTRA:         -10.572
REMARK INTER:                  -9.836
REMARK INTRA:                  -0.736
REMARK UNBOUND:                -0.664
REMARK SMILES Cc1cccc(C=C2C(=O)N(C)c3ncnc(C=C(C#N)C#N)c32)c1
REMARK SMILES IDX 7 1 8 2 9 3 10 4 11 5 12 6 13 7 14 8 15 9 16 10 17 11 24 12
REMARK SMILES IDX 6 13 2 14 3 15 25 16 4 17 5 18 1 19 18 20 19 21 20 22 22 23
REMARK SMILES IDX 21 24 23 25
REMARK H PARENT
ROOT
ATOM      1  C   UNL     1      25.325   2.910  51.305  1.00  0.00    +0.022 C 
ATOM      2  C   UNL     1      24.227   2.145  51.191  1.00  0.00    +0.054 C 
ATOM      3  C   UNL     1      23.191   2.230  50.092  1.00  0.00    +0.260 C 
ATOM      4  O   UNL     1      23.201   2.950  49.112  1.00  0.00    -0.269 OA
ATOM      5  N   UNL     1      22.227   1.303  50.449  1.00  0.00    -0.295 N 
ATOM      6  C   UNL     1      21.027   1.018  49.711  1.00  0.00    +0.155 C 
ATOM      7  C   UNL     1      22.562   0.635  51.631  1.00  0.00    +0.147 A 
ATOM      8  N   UNL     1      21.806  -0.314  52.192  1.00  0.00    -0.218 NA
ATOM      9  C   UNL     1      22.323  -0.827  53.312  1.00  0.00    +0.224 A 
ATOM     10  N   UNL     1      23.502  -0.482  53.869  1.00  0.00    -0.236 NA
ATOM     11  C   UNL     1      24.222   0.485  53.259  1.00  0.00    +0.079 A 
ATOM     12  C   UNL     1      23.779   1.093  52.111  1.00  0.00    +0.056 A 
ENDROOT
BRANCH   1  13
ATOM     13  C   UNL     1      25.740   3.975  50.385  1.00  0.00    -0.025 A 
ATOM     14  C   UNL     1      25.543   6.251  49.543  1.00  0.00    -0.051 A 
ATOM     15  C   UNL     1      26.624   6.015  48.687  1.00  0.00    +0.003 A 
ATOM     16  C   UNL     1      25.117   5.229  50.403  1.00  0.00    +0.011 A 
ATOM     17  C   UNL     1      27.253   4.770  48.671  1.00  0.00    +0.001 A 
ATOM     18  C   UNL     1      26.813   3.753  49.517  1.00  0.00    +0.008 A 
ATOM     19  C   UNL     1      24.879   7.596  49.579  1.00  0.00    +0.044 C 
ENDBRANCH   1  13
BRANCH  11  20
ATOM     20  C   UNL     1      25.515   0.761  53.889  1.00  0.00    +0.060 C 
ATOM     21  C   UNL     1      26.652   0.059  53.703  1.00  0.00    +0.131 C 
ATOM     22  C   UNL     1      27.838   0.487  54.363  1.00  0.00    +0.111 C 
ATOM     23  C   UNL     1      26.718  -1.120  52.904  1.00  0.00    +0.111 C 
ATOM     24  N   UNL     1      28.783   0.861  54.923  1.00  0.00    -0.192 NA
ATOM     25  N   UNL     1      26.784  -2.098  52.281  1.00  0.00    -0.192 NA
ENDBRANCH  11  20
TORSDOF 2
ENDMDL
MODEL 3
REMARK VINA RESULT:    -8.284      2.513      5.966
REMARK INTER + INTRA:          -9.916
REMARK INTER:                  -9.007
REMARK INTRA:                  -0.910
REMARK UNBOUND:                -0.664
REMARK SMILES Cc1cccc(C=C2C(=O)N(C)c3ncnc(C=C(C#N)C#N)c32)c1
REMARK SMILES IDX 7 1 8 2 9 3 10 4 11 5 12 6 13 7 14 8 15 9 16 10 17 11 24 12
REMARK SMILES IDX 6 13 2 14 3 15 25 16 4 17 5 18 1 19 18 20 19 21 20 22 22 23
REMARK SMILES IDX 21 24 23 25
REMARK H PARENT
ROOT
ATOM      1  C   UNL     1      23.947   1.898  52.241  1.00  0.00    +0.022 C 
ATOM      2  C   UNL     1      23.198   0.953  52.831  1.00  0.00    +0.054 C 
ATOM      3  C   UNL     1      21.732   0.684  52.569  1.00  0.00    +0.260 C 
ATOM      4  O   UNL     1      21.009   1.228  51.756  1.00  0.00    -0.269 OA
ATOM      5  N   UNL     1      21.397  -0.319  53.462  1.00  0.00    -0.295 N 
ATOM      6  C   UNL     1      20.097  -0.916  53.598  1.00  0.00    +0.155 C 
ATOM      7  C   UNL     1      22.495  -0.721  54.227  1.00  0.00    +0.147 A 
ATOM      8  N   UNL     1      22.445  -1.678  55.159  1.00  0.00    -0.218 NA
ATOM      9  C   UNL     1      23.614  -1.909  55.762  1.00  0.00    +0.224 A 
ATOM     10  N   UNL     1      24.780  -1.288  55.492  1.00  0.00    -0.236 NA
ATOM     11  C   UNL     1      24.769  -0.326  54.541  1.00  0.00    +0.079 A 
ATOM     12  C   UNL     1      23.619   0.005  53.869  1.00  0.00    +0.056 A 
ENDROOT
BRANCH   1  13
ATOM     13  C   UNL     1      23.497   2.853  51.223  1.00  0.00    -0.025 A 
ATOM     14  C   UNL     1      22.577   5.021  50.603  1.00  0.00    -0.051 A 
ATOM     15  C   UNL     1      22.741   4.691  49.254  1.00  0.00    +0.003 A 
ATOM     16  C   UNL     1      22.974   4.102  51.585  1.00  0.00    +0.011 A 
ATOM     17  C   UNL     1      23.269   3.452  48.888  1.00  0.00    +0.001 A 
ATOM     18  C   UNL     1      23.646   2.536  49.870  1.00  0.00    +0.008 A 
ATOM     19  C   UNL     1      22.030   6.361  50.999  1.00  0.00    +0.044 C 
ENDBRANCH   1  13
BRANCH  11  20
ATOM     20  C   UNL     1      26.083   0.260  54.264  1.00  0.00    +0.060 C 
ATOM     21  C   UNL     1      27.003  -0.232  53.408  1.00  0.00    +0.131 C 
ATOM     22  C   UNL     1      28.219   0.485  53.223  1.00  0.00    +0.111 C 
ATOM     23  C   UNL     1      26.837  -1.461  52.706  1.00  0.00    +0.111 C 
ATOM     24  N   UNL     1      29.199   1.093  53.102  1.00  0.00    -0.192 NA
ATOM     25  N   UNL     1      26.730  -2.474  52.148  1.00  0.00    -0.192 NA
ENDBRANCH  11  20
TORSDOF 2
ENDMDL
MODEL 4
REMARK VINA RESULT:    -8.243      2.452      6.496
REMARK INTER + INTRA:          -9.870
REMARK INTER:                  -9.442
REMARK INTRA:                  -0.428
REMARK UNBOUND:                -0.664
REMARK SMILES Cc1cccc(C=C2C(=O)N(C)c3ncnc(C=C(C#N)C#N)c32)c1
REMARK SMILES IDX 7 1 8 2 9 3 10 4 11 5 12 6 13 7 14 8 15 9 16 10 17 11 24 12
REMARK SMILES IDX 6 13 2 14 3 15 25 16 4 17 5 18 1 19 18 20 19 21 20 22 22 23
REMARK SMILES IDX 21 24 23 25
REMARK H PARENT
ROOT
ATOM      1  C   UNL     1      23.114   0.732  52.092  1.00  0.00    +0.022 C 
ATOM      2  C   UNL     1      23.393   1.984  51.693  1.00  0.00    +0.054 C 
ATOM      3  C   UNL     1      22.429   3.150  51.674  1.00  0.00    +0.260 C 
ATOM      4  O   UNL     1      21.277   3.170  52.061  1.00  0.00    -0.269 OA
ATOM      5  N   UNL     1      23.152   4.191  51.117  1.00  0.00    -0.295 N 
ATOM      6  C   UNL     1      22.659   5.520  50.885  1.00  0.00    +0.155 C 
ATOM      7  C   UNL     1      24.463   3.810  50.815  1.00  0.00    +0.147 A 
ATOM      8  N   UNL     1      25.372   4.626  50.276  1.00  0.00    -0.218 NA
ATOM      9  C   UNL     1      26.565   4.057  50.081  1.00  0.00    +0.224 A 
ATOM     10  N   UNL     1      26.897   2.789  50.396  1.00  0.00    -0.236 NA
ATOM     11  C   UNL     1      25.935   2.008  50.937  1.00  0.00    +0.079 A 
ATOM     12  C   UNL     1      24.668   2.485  51.166  1.00  0.00    +0.056 A 
ENDROOT
BRANCH   1  13
ATOM     13  C   UNL     1      21.823   0.248  52.592  1.00  0.00    -0.025 A 
ATOM     14  C   UNL     1      19.461  -0.236  52.255  1.00  0.00    -0.051 A 
ATOM     15  C   UNL     1      19.400  -0.776  53.544  1.00  0.00    +0.003 A 
ATOM     16  C   UNL     1      20.683   0.260  51.779  1.00  0.00    +0.011 A 
ATOM     17  C   UNL     1      20.535  -0.797  54.355  1.00  0.00    +0.001 A 
ATOM     18  C   UNL     1      21.743  -0.287  53.881  1.00  0.00    +0.008 A 
ATOM     19  C   UNL     1      18.248  -0.232  51.373  1.00  0.00    +0.044 C 
ENDBRANCH   1  13
BRANCH  11  20
ATOM     20  C   UNL     1      26.387   0.664  51.306  1.00  0.00    +0.060 C 
ATOM     21  C   UNL     1      26.633   0.229  52.559  1.00  0.00    +0.131 C 
ATOM     22  C   UNL     1      27.029  -1.126  52.749  1.00  0.00    +0.111 C 
ATOM     23  C   UNL     1      26.554   1.070  53.707  1.00  0.00    +0.111 C 
ATOM     24  N   UNL     1      27.356  -2.233  52.864  1.00  0.00    -0.192 NA
ATOM     25  N   UNL     1      26.522   1.748  54.649  1.00  0.00    -0.192 NA
ENDBRANCH  11  20
TORSDOF 2
ENDMDL
MODEL 5
REMARK VINA RESULT:    -8.188      1.794      2.587
REMARK INTER + INTRA:          -9.809
REMARK INTER:                  -8.844
REMARK INTRA:                  -0.965
REMARK UNBOUND:                -0.664
REMARK SMILES Cc1cccc(C=C2C(=O)N(C)c3ncnc(C=C(C#N)C#N)c32)c1
REMARK SMILES IDX 7 1 8 2 9 3 10 4 11 5 12 6 13 7 14 8 15 9 16 10 17 11 24 12
REMARK SMILES IDX 6 13 2 14 3 15 25 16 4 17 5 18 1 19 18 20 19 21 20 22 22 23
REMARK SMILES IDX 21 24 23 25
REMARK H PARENT
ROOT
ATOM      1  C   UNL     1      24.471   1.964  52.666  1.00  0.00    +0.022 C 
ATOM      2  C   UNL     1      23.171   1.645  52.772  1.00  0.00    +0.054 C 
ATOM      3  C   UNL     1      22.613   0.330  53.269  1.00  0.00    +0.260 C 
ATOM      4  O   UNL     1      23.230  -0.625  53.701  1.00  0.00    -0.269 OA
ATOM      5  N   UNL     1      21.242   0.454  53.121  1.00  0.00    -0.295 N 
ATOM      6  C   UNL     1      20.271  -0.550  53.456  1.00  0.00    +0.155 C 
ATOM      7  C   UNL     1      20.887   1.708  52.615  1.00  0.00    +0.147 A 
ATOM      8  N   UNL     1      19.627   2.089  52.383  1.00  0.00    -0.218 NA
ATOM      9  C   UNL     1      19.515   3.334  51.910  1.00  0.00    +0.224 A 
ATOM     10  N   UNL     1      20.534   4.188  51.684  1.00  0.00    -0.236 NA
ATOM     11  C   UNL     1      21.787   3.746  51.934  1.00  0.00    +0.079 A 
ATOM     12  C   UNL     1      22.019   2.479  52.406  1.00  0.00    +0.056 A 
ENDROOT
BRANCH   1  13
ATOM     13  C   UNL     1      25.607   1.105  53.014  1.00  0.00    -0.025 A 
ATOM     14  C   UNL     1      27.195   0.240  54.645  1.00  0.00    -0.051 A 
ATOM     15  C   UNL     1      27.710  -0.620  53.669  1.00  0.00    +0.003 A 
ATOM     16  C   UNL     1      26.130   1.089  54.314  1.00  0.00    +0.011 A 
ATOM     17  C   UNL     1      27.188  -0.614  52.376  1.00  0.00    +0.001 A 
ATOM     18  C   UNL     1      26.140   0.245  52.049  1.00  0.00    +0.008 A 
ATOM     19  C   UNL     1      27.740   0.220  56.043  1.00  0.00    +0.044 C 
ENDBRANCH   1  13
BRANCH  11  20
ATOM     20  C   UNL     1      22.833   4.749  51.720  1.00  0.00    +0.060 C 
ATOM     21  C   UNL     1      23.604   4.865  50.618  1.00  0.00    +0.131 C 
ATOM     22  C   UNL     1      24.550   5.927  50.553  1.00  0.00    +0.111 C 
ATOM     23  C   UNL     1      23.546   3.952  49.526  1.00  0.00    +0.111 C 
ATOM     24  N   UNL     1      25.315   6.799  50.538  1.00  0.00    -0.192 NA
ATOM     25  N   UNL     1      23.532   3.201  48.640  1.00  0.00    -0.192 NA
ENDBRANCH  11  20
TORSDOF 2
ENDMDL
MODEL 6
REMARK VINA RESULT:    -7.920      1.782      4.431
REMARK INTER + INTRA:          -9.510
REMARK INTER:                  -9.672
REMARK INTRA:                   0.162
REMARK UNBOUND:                -0.664
REMARK SMILES Cc1cccc(C=C2C(=O)N(C)c3ncnc(C=C(C#N)C#N)c32)c1
REMARK SMILES IDX 7 1 8 2 9 3 10 4 11 5 12 6 13 7 14 8 15 9 16 10 17 11 24 12
REMARK SMILES IDX 6 13 2 14 3 15 25 16 4 17 5 18 1 19 18 20 19 21 20 22 22 23
REMARK SMILES IDX 21 24 23 25
REMARK H PARENT
ROOT
ATOM      1  C   UNL     1      25.439   0.952  53.106  1.00  0.00    +0.022 C 
ATOM      2  C   UNL     1      25.113   1.933  52.248  1.00  0.00    +0.054 C 
ATOM      3  C   UNL     1      26.077   2.726  51.394  1.00  0.00    +0.260 C 
ATOM      4  O   UNL     1      27.281   2.580  51.296  1.00  0.00    -0.269 OA
ATOM      5  N   UNL     1      25.284   3.658  50.747  1.00  0.00    -0.295 N 
ATOM      6  C   UNL     1      25.750   4.653  49.820  1.00  0.00    +0.155 C 
ATOM      7  C   UNL     1      23.935   3.514  51.082  1.00  0.00    +0.147 A 
ATOM      8  N   UNL     1      22.958   4.282  50.592  1.00  0.00    -0.218 NA
ATOM      9  C   UNL     1      21.740   3.961  51.039  1.00  0.00    +0.224 A 
ATOM     10  N   UNL     1      21.449   2.956  51.889  1.00  0.00    -0.236 NA
ATOM     11  C   UNL     1      22.479   2.213  52.354  1.00  0.00    +0.079 A 
ATOM     12  C   UNL     1      23.774   2.465  51.974  1.00  0.00    +0.056 A 
ENDROOT
BRANCH   1  13
ATOM     13  C   UNL     1      26.790   0.453  53.383  1.00  0.00    -0.025 A 
ATOM     14  C   UNL     1      28.461  -1.315  53.293  1.00  0.00    -0.051 A 
ATOM     15  C   UNL     1      29.404  -0.435  53.833  1.00  0.00    +0.003 A 
ATOM     16  C   UNL     1      27.157  -0.858  53.054  1.00  0.00    +0.011 A 
ATOM     17  C   UNL     1      29.045   0.874  54.155  1.00  0.00    +0.001 A 
ATOM     18  C   UNL     1      27.742   1.318  53.931  1.00  0.00    +0.008 A 
ATOM     19  C   UNL     1      28.850  -2.717  52.924  1.00  0.00    +0.044 C 
ENDBRANCH   1  13
BRANCH  11  20
ATOM     20  C   UNL     1      22.077   1.105  53.224  1.00  0.00    +0.060 C 
ATOM     21  C   UNL     1      21.127   0.188  52.948  1.00  0.00    +0.131 C 
ATOM     22  C   UNL     1      20.887  -0.854  53.888  1.00  0.00    +0.111 C 
ATOM     23  C   UNL     1      20.320   0.230  51.775  1.00  0.00    +0.111 C 
ATOM     24  N   UNL     1      20.714  -1.683  54.680  1.00  0.00    -0.192 NA
ATOM     25  N   UNL     1      19.633   0.266  50.838  1.00  0.00    -0.192 NA
ENDBRANCH  11  20
TORSDOF 2
ENDMDL
MODEL 7
REMARK VINA RESULT:    -7.404      2.548      6.747
REMARK INTER + INTRA:          -8.933
REMARK INTER:                  -8.015
REMARK INTRA:                  -0.919
REMARK UNBOUND:                -0.664
REMARK SMILES Cc1cccc(C=C2C(=O)N(C)c3ncnc(C=C(C#N)C#N)c32)c1
REMARK SMILES IDX 7 1 8 2 9 3 10 4 11 5 12 6 13 7 14 8 15 9 16 10 17 11 24 12
REMARK SMILES IDX 6 13 2 14 3 15 25 16 4 17 5 18 1 19 18 20 19 21 20 22 22 23
REMARK SMILES IDX 21 24 23 25
REMARK H PARENT
ROOT
ATOM      1  C   UNL     1      20.636   1.706  51.160  1.00  0.00    +0.022 C 
ATOM      2  C   UNL     1      21.297   0.882  51.990  1.00  0.00    +0.054 C 
ATOM      3  C   UNL     1      20.673  -0.138  52.917  1.00  0.00    +0.260 C 
ATOM      4  O   UNL     1      19.496  -0.424  53.027  1.00  0.00    -0.269 OA
ATOM      5  N   UNL     1      21.742  -0.676  53.613  1.00  0.00    -0.295 N 
ATOM      6  C   UNL     1      21.654  -1.695  54.623  1.00  0.00    +0.155 C 
ATOM      7  C   UNL     1      22.959  -0.124  53.203  1.00  0.00    +0.147 A 
ATOM      8  N   UNL     1      24.145  -0.473  53.710  1.00  0.00    -0.218 NA
ATOM      9  C   UNL     1      25.180   0.173  53.164  1.00  0.00    +0.224 A 
ATOM     10  N   UNL     1      25.108   1.087  52.176  1.00  0.00    -0.236 NA
ATOM     11  C   UNL     1      23.881   1.403  51.704  1.00  0.00    +0.079 A 
ATOM     12  C   UNL     1      22.747   0.812  52.204  1.00  0.00    +0.056 A 
ENDROOT
BRANCH   1  13
ATOM     13  C   UNL     1      19.182   1.776  50.982  1.00  0.00    -0.025 A 
ATOM     14  C   UNL     1      17.041   2.858  51.398  1.00  0.00    -0.051 A 
ATOM     15  C   UNL     1      16.424   1.941  50.541  1.00  0.00    +0.003 A 
ATOM     16  C   UNL     1      18.426   2.780  51.601  1.00  0.00    +0.011 A 
ATOM     17  C   UNL     1      17.174   0.943  49.916  1.00  0.00    +0.001 A 
ATOM     18  C   UNL     1      18.549   0.861  50.136  1.00  0.00    +0.008 A 
ATOM     19  C   UNL     1      16.241   3.945  52.053  1.00  0.00    +0.044 C 
ENDBRANCH   1  13
BRANCH  11  20
ATOM     20  C   UNL     1      23.890   2.358  50.593  1.00  0.00    +0.060 C 
ATOM     21  C   UNL     1      23.772   3.698  50.701  1.00  0.00    +0.131 C 
ATOM     22  C   UNL     1      23.843   4.489  49.521  1.00  0.00    +0.111 C 
ATOM     23  C   UNL     1      23.540   4.363  51.940  1.00  0.00    +0.111 C 
ATOM     24  N   UNL     1      23.898   5.101  48.537  1.00  0.00    -0.192 NA
ATOM     25  N   UNL     1      23.323   4.918  52.937  1.00  0.00    -0.192 NA
ENDBRANCH  11  20
TORSDOF 2
ENDMDL
MODEL 8
REMARK VINA RESULT:    -7.258      2.697      6.292
REMARK INTER + INTRA:          -8.770
REMARK INTER:                  -8.368
REMARK INTRA:                  -0.403
REMARK UNBOUND:                -0.664
REMARK SMILES Cc1cccc(C=C2C(=O)N(C)c3ncnc(C=C(C#N)C#N)c32)c1
REMARK SMILES IDX 7 1 8 2 9 3 10 4 11 5 12 6 13 7 14 8 15 9 16 10 17 11 24 12
REMARK SMILES IDX 6 13 2 14 3 15 25 16 4 17 5 18 1 19 18 20 19 21 20 22 22 23
REMARK SMILES IDX 21 24 23 25
REMARK H PARENT
ROOT
ATOM      1  C   UNL     1      23.100   3.330  51.489  1.00  0.00    +0.022 C 
ATOM      2  C   UNL     1      22.361   2.251  51.796  1.00  0.00    +0.054 C 
ATOM      3  C   UNL     1      20.930   2.001  51.376  1.00  0.00    +0.260 C 
ATOM      4  O   UNL     1      20.233   2.691  50.656  1.00  0.00    -0.269 OA
ATOM      5  N   UNL     1      20.588   0.810  51.994  1.00  0.00    -0.295 N 
ATOM      6  C   UNL     1      19.312   0.156  51.900  1.00  0.00    +0.155 C 
ATOM      7  C   UNL     1      21.654   0.281  52.727  1.00  0.00    +0.147 A 
ATOM      8  N   UNL     1      21.592  -0.863  53.414  1.00  0.00    -0.218 NA
ATOM      9  C   UNL     1      22.732  -1.187  54.032  1.00  0.00    +0.224 A 
ATOM     10  N   UNL     1      23.881  -0.483  53.992  1.00  0.00    -0.236 NA
ATOM     11  C   UNL     1      23.883   0.669  53.284  1.00  0.00    +0.079 A 
ATOM     12  C   UNL     1      22.763   1.106  52.622  1.00  0.00    +0.056 A 
ENDROOT
BRANCH   1  13
ATOM     13  C   UNL     1      22.669   4.475  50.682  1.00  0.00    -0.025 A 
ATOM     14  C   UNL     1      22.334   5.546  48.521  1.00  0.00    -0.051 A 
ATOM     15  C   UNL     1      21.744   6.638  49.166  1.00  0.00    +0.003 A 
ATOM     16  C   UNL     1      22.779   4.459  49.285  1.00  0.00    +0.011 A 
ATOM     17  C   UNL     1      21.624   6.656  50.556  1.00  0.00    +0.001 A 
ATOM     18  C   UNL     1      22.085   5.579  51.312  1.00  0.00    +0.008 A 
ATOM     19  C   UNL     1      22.444   5.514  47.024  1.00  0.00    +0.044 C 
ENDBRANCH   1  13
BRANCH  11  20
ATOM     20  C   UNL     1      25.182   1.346  53.239  1.00  0.00    +0.060 C 
ATOM     21  C   UNL     1      26.353   0.784  52.874  1.00  0.00    +0.131 C 
ATOM     22  C   UNL     1      27.522   1.596  52.846  1.00  0.00    +0.111 C 
ATOM     23  C   UNL     1      26.490  -0.597  52.551  1.00  0.00    +0.111 C 
ATOM     24  N   UNL     1      28.455   2.286  52.842  1.00  0.00    -0.192 NA
ATOM     25  N   UNL     1      26.624  -1.726  52.313  1.00  0.00    -0.192 NA
ENDBRANCH  11  20
TORSDOF 2
ENDMDL
MODEL 9
REMARK VINA RESULT:    -7.238      2.362      5.369
REMARK INTER + INTRA:          -8.748
REMARK INTER:                  -8.886
REMARK INTRA:                   0.138
REMARK UNBOUND:                -0.664
REMARK SMILES Cc1cccc(C=C2C(=O)N(C)c3ncnc(C=C(C#N)C#N)c32)c1
REMARK SMILES IDX 7 1 8 2 9 3 10 4 11 5 12 6 13 7 14 8 15 9 16 10 17 11 24 12
REMARK SMILES IDX 6 13 2 14 3 15 25 16 4 17 5 18 1 19 18 20 19 21 20 22 22 23
REMARK SMILES IDX 21 24 23 25
REMARK H PARENT
ROOT
ATOM      1  C   UNL     1      24.464   3.539  50.757  1.00  0.00    +0.022 C 
ATOM      2  C   UNL     1      24.811   2.483  51.511  1.00  0.00    +0.054 C 
ATOM      3  C   UNL     1      26.221   2.003  51.779  1.00  0.00    +0.260 C 
ATOM      4  O   UNL     1      27.263   2.511  51.413  1.00  0.00    -0.269 OA
ATOM      5  N   UNL     1      26.060   0.854  52.535  1.00  0.00    -0.295 N 
ATOM      6  C   UNL     1      27.124   0.028  53.035  1.00  0.00    +0.155 C 
ATOM      7  C   UNL     1      24.713   0.584  52.788  1.00  0.00    +0.147 A 
ATOM      8  N   UNL     1      24.282  -0.462  53.500  1.00  0.00    -0.218 NA
ATOM      9  C   UNL     1      22.953  -0.521  53.628  1.00  0.00    +0.224 A 
ATOM     10  N   UNL     1      22.071   0.368  53.130  1.00  0.00    -0.236 NA
ATOM     11  C   UNL     1      22.564   1.405  52.416  1.00  0.00    +0.079 A 
ATOM     12  C   UNL     1      23.912   1.555  52.208  1.00  0.00    +0.056 A 
ENDROOT
BRANCH   1  13
ATOM     13  C   UNL     1      25.380   4.438  50.048  1.00  0.00    -0.025 A 
ATOM     14  C   UNL     1      26.162   6.680  49.508  1.00  0.00    -0.051 A 
ATOM     15  C   UNL     1      27.207   6.123  48.763  1.00  0.00    +0.003 A 
ATOM     16  C   UNL     1      25.261   5.829  50.163  1.00  0.00    +0.011 A 
ATOM     17  C   UNL     1      27.335   4.738  48.651  1.00  0.00    +0.001 A 
ATOM     18  C   UNL     1      26.425   3.898  49.292  1.00  0.00    +0.008 A 
ATOM     19  C   UNL     1      26.035   8.168  49.648  1.00  0.00    +0.044 C 
ENDBRANCH   1  13
BRANCH  11  20
ATOM     20  C   UNL     1      21.549   2.358  51.959  1.00  0.00    +0.060 C 
ATOM     21  C   UNL     1      20.965   2.369  50.743  1.00  0.00    +0.131 C 
ATOM     22  C   UNL     1      19.963   3.342  50.473  1.00  0.00    +0.111 C 
ATOM     23  C   UNL     1      21.330   1.475  49.694  1.00  0.00    +0.111 C 
ATOM     24  N   UNL     1      19.156   4.154  50.286  1.00  0.00    -0.192 NA
ATOM     25  N   UNL     1      21.634   0.773  48.820  1.00  0.00    -0.192 NA
ENDBRANCH  11  20
TORSDOF 2
ENDMDL
