MODEL 1
REMARK VINA RESULT:    -7.838      0.000      0.000
REMARK INTER + INTRA:         -14.388
REMARK INTER:                 -12.649
REMARK INTRA:                  -1.739
REMARK UNBOUND:                -1.739
REMARK SMILES CN(CC/N=N/Nc1ccc2ncnc(-c3ccc(O)c([N+](=O)[O-])c3)c2c1)CCN1CCOCC1
REMARK SMILES IDX 5 1 6 2 4 3 3 4 2 5 1 6 28 7 29 8 30 9 31 10 35 11 32 12
REMARK SMILES IDX 34 13 33 14 7 15 8 17 9 18 27 19 10 20 26 21 11 22 15 23
REMARK SMILES IDX 12 24 14 25 13 26 16 27 17 28 25 29 18 30 21 31 19 32 22 33
REMARK SMILES IDX 23 34 24 35 20 36
REMARK H PARENT 7 16 20 37
ROOT
ATOM      1  N   UNL     1      21.631   2.795  47.905  1.00  0.00    -0.170 NA
ATOM      2  N   UNL     1      21.604   2.870  49.148  1.00  0.00    -0.075 NA
ENDROOT
BRANCH   1   3
ATOM      3  C   UNL     1      20.599   3.638  47.272  1.00  0.00    +0.184 C 
BRANCH   3   4
ATOM      4  C   UNL     1      20.625   5.055  47.875  1.00  0.00    +0.110 C 
BRANCH   4   5
ATOM      5  N   UNL     1      21.727   5.949  47.460  1.00  0.00    -0.303 NA
ATOM      6  C   UNL     1      21.227   7.155  46.801  1.00  0.00    +0.105 C 
BRANCH   5   7
ATOM      7  C   UNL     1      22.641   6.256  48.578  1.00  0.00    +0.099 C 
BRANCH   7   8
ATOM      8  C   UNL     1      23.978   5.466  48.551  1.00  0.00    +0.100 C 
BRANCH   8   9
ATOM      9  N   UNL     1      24.836   5.668  49.736  1.00  0.00    -0.297 NA
ATOM     10  C   UNL     1      25.046   4.431  50.522  1.00  0.00    +0.113 C 
ATOM     11  C   UNL     1      26.168   6.191  49.352  1.00  0.00    +0.113 C 
ATOM     12  C   UNL     1      25.972   3.408  49.843  1.00  0.00    +0.175 C 
ATOM     13  C   UNL     1      27.093   5.145  48.704  1.00  0.00    +0.175 C 
ATOM     14  O   UNL     1      27.249   3.988  49.535  1.00  0.00    -0.379 OA
ENDBRANCH   8   9
ENDBRANCH   7   8
ENDBRANCH   5   7
ENDBRANCH   4   5
ENDBRANCH   3   4
ENDBRANCH   1   3
BRANCH   2  15
ATOM     15  N   UNL     1      22.586   2.062  49.583  1.00  0.00    -0.260 N 
ATOM     16  H   UNL     1      23.201   1.708  48.861  1.00  0.00    +0.192 HD
BRANCH  15  17
ATOM     17  C   UNL     1      22.348   1.228  50.686  1.00  0.00    +0.059 A 
ATOM     18  C   UNL     1      21.090   0.694  50.965  1.00  0.00    +0.030 A 
ATOM     19  C   UNL     1      23.369   0.995  51.615  1.00  0.00    +0.040 A 
ATOM     20  C   UNL     1      20.872  -0.066  52.121  1.00  0.00    +0.031 A 
ATOM     21  C   UNL     1      23.160   0.201  52.779  1.00  0.00    +0.029 A 
ATOM     22  C   UNL     1      21.884  -0.319  53.033  1.00  0.00    +0.074 A 
ATOM     23  C   UNL     1      24.127  -0.116  53.751  1.00  0.00    +0.082 A 
ATOM     24  N   UNL     1      21.593  -1.040  54.122  1.00  0.00    -0.236 NA
ATOM     25  N   UNL     1      23.845  -0.827  54.866  1.00  0.00    -0.236 NA
ATOM     26  C   UNL     1      22.585  -1.252  54.993  1.00  0.00    +0.223 A 
BRANCH  23  27
ATOM     27  C   UNL     1      25.548   0.268  53.657  1.00  0.00    +0.008 A 
ATOM     28  C   UNL     1      25.936   1.616  53.565  1.00  0.00    +0.015 A 
ATOM     29  C   UNL     1      26.550  -0.717  53.600  1.00  0.00    +0.100 A 
ATOM     30  C   UNL     1      27.282   1.974  53.443  1.00  0.00    +0.054 A 
ATOM     31  C   UNL     1      27.904  -0.357  53.474  1.00  0.00    +0.311 A 
ATOM     32  C   UNL     1      28.271   0.992  53.397  1.00  0.00    +0.194 A 
BRANCH  31  33
ATOM     33  N   UNL     1      28.914  -1.416  53.425  1.00  0.00    +0.066 N 
ATOM     34  O   UNL     1      30.085  -1.103  53.697  1.00  0.00    -0.258 OA
ATOM     35  O   UNL     1      28.547  -2.562  53.128  1.00  0.00    -0.258 OA
ENDBRANCH  31  33
BRANCH  32  36
ATOM     36  O   UNL     1      29.549   1.462  53.272  1.00  0.00    -0.502 OA
ATOM     37  H   UNL     1      29.836   1.888  54.113  1.00  0.00    +0.293 HD
ENDBRANCH  32  36
ENDBRANCH  23  27
ENDBRANCH  15  17
ENDBRANCH   2  15
TORSDOF 11
ENDMDL
MODEL 2
REMARK VINA RESULT:    -7.772      1.370      1.743
REMARK INTER + INTRA:         -14.282
REMARK INTER:                 -12.881
REMARK INTRA:                  -1.402
REMARK UNBOUND:                -1.739
REMARK SMILES CN(CC/N=N/Nc1ccc2ncnc(-c3ccc(O)c([N+](=O)[O-])c3)c2c1)CCN1CCOCC1
REMARK SMILES IDX 5 1 6 2 4 3 3 4 2 5 1 6 28 7 29 8 30 9 31 10 35 11 32 12
REMARK SMILES IDX 34 13 33 14 7 15 8 17 9 18 27 19 10 20 26 21 11 22 15 23
REMARK SMILES IDX 12 24 14 25 13 26 16 27 17 28 25 29 18 30 21 31 19 32 22 33
REMARK SMILES IDX 23 34 24 35 20 36
REMARK H PARENT 7 16 20 37
ROOT
ATOM      1  N   UNL     1      20.907   3.644  50.064  1.00  0.00    -0.170 NA
ATOM      2  N   UNL     1      22.114   3.353  50.167  1.00  0.00    -0.075 NA
ENDROOT
BRANCH   1   3
ATOM      3  C   UNL     1      20.659   5.082  50.282  1.00  0.00    +0.184 C 
BRANCH   3   4
ATOM      4  C   UNL     1      21.886   5.740  50.942  1.00  0.00    +0.110 C 
BRANCH   4   5
ATOM      5  N   UNL     1      22.416   6.969  50.314  1.00  0.00    -0.303 NA
ATOM      6  C   UNL     1      21.473   8.082  50.423  1.00  0.00    +0.105 C 
BRANCH   5   7
ATOM      7  C   UNL     1      23.758   7.316  50.825  1.00  0.00    +0.099 C 
BRANCH   7   8
ATOM      8  C   UNL     1      24.833   6.218  50.603  1.00  0.00    +0.100 C 
BRANCH   8   9
ATOM      9  N   UNL     1      24.902   5.694  49.224  1.00  0.00    -0.297 NA
ATOM     10  C   UNL     1      25.883   6.409  48.376  1.00  0.00    +0.113 C 
ATOM     11  C   UNL     1      25.259   4.256  49.212  1.00  0.00    +0.113 C 
ATOM     12  C   UNL     1      27.350   6.103  48.724  1.00  0.00    +0.175 C 
ATOM     13  C   UNL     1      26.738   3.970  49.529  1.00  0.00    +0.175 C 
ATOM     14  O   UNL     1      27.615   4.693  48.657  1.00  0.00    -0.379 OA
ENDBRANCH   8   9
ENDBRANCH   7   8
ENDBRANCH   5   7
ENDBRANCH   4   5
ENDBRANCH   3   4
ENDBRANCH   1   3
BRANCH   2  15
ATOM     15  N   UNL     1      22.188   2.028  49.946  1.00  0.00    -0.260 N 
ATOM     16  H   UNL     1      21.828   1.722  49.051  1.00  0.00    +0.192 HD
BRANCH  15  17
ATOM     17  C   UNL     1      22.049   1.145  51.028  1.00  0.00    +0.059 A 
ATOM     18  C   UNL     1      20.833   0.546  51.356  1.00  0.00    +0.030 A 
ATOM     19  C   UNL     1      23.130   0.925  51.889  1.00  0.00    +0.040 A 
ATOM     20  C   UNL     1      20.713  -0.264  52.492  1.00  0.00    +0.031 A 
ATOM     21  C   UNL     1      23.022   0.081  53.032  1.00  0.00    +0.029 A 
ATOM     22  C   UNL     1      21.786  -0.504  53.336  1.00  0.00    +0.074 A 
ATOM     23  C   UNL     1      24.056  -0.227  53.936  1.00  0.00    +0.082 A 
ATOM     24  N   UNL     1      21.589  -1.276  54.411  1.00  0.00    -0.236 NA
ATOM     25  N   UNL     1      23.869  -0.990  55.036  1.00  0.00    -0.236 NA
ATOM     26  C   UNL     1      22.638  -1.475  55.217  1.00  0.00    +0.223 A 
BRANCH  23  27
ATOM     27  C   UNL     1      25.451   0.223  53.777  1.00  0.00    +0.008 A 
ATOM     28  C   UNL     1      25.773   1.588  53.684  1.00  0.00    +0.015 A 
ATOM     29  C   UNL     1      26.494  -0.714  53.657  1.00  0.00    +0.100 A 
ATOM     30  C   UNL     1      27.094   2.010  53.502  1.00  0.00    +0.054 A 
ATOM     31  C   UNL     1      27.822  -0.291  53.471  1.00  0.00    +0.311 A 
ATOM     32  C   UNL     1      28.123   1.075  53.394  1.00  0.00    +0.194 A 
BRANCH  31  33
ATOM     33  N   UNL     1      28.875  -1.301  53.357  1.00  0.00    +0.066 N 
ATOM     34  O   UNL     1      28.525  -2.468  53.110  1.00  0.00    -0.258 OA
ATOM     35  O   UNL     1      30.051  -0.940  53.501  1.00  0.00    -0.258 OA
ENDBRANCH  31  33
BRANCH  32  36
ATOM     36  O   UNL     1      29.370   1.605  53.213  1.00  0.00    -0.502 OA
ATOM     37  H   UNL     1      30.014   0.890  53.007  1.00  0.00    +0.293 HD
ENDBRANCH  32  36
ENDBRANCH  23  27
ENDBRANCH  15  17
ENDBRANCH   2  15
TORSDOF 11
ENDMDL
MODEL 3
REMARK VINA RESULT:    -7.568      2.423      3.530
REMARK INTER + INTRA:         -13.953
REMARK INTER:                 -12.873
REMARK INTRA:                  -1.079
REMARK UNBOUND:                -1.739
REMARK SMILES CN(CC/N=N/Nc1ccc2ncnc(-c3ccc(O)c([N+](=O)[O-])c3)c2c1)CCN1CCOCC1
REMARK SMILES IDX 5 1 6 2 4 3 3 4 2 5 1 6 28 7 29 8 30 9 31 10 35 11 32 12
REMARK SMILES IDX 34 13 33 14 7 15 8 17 9 18 27 19 10 20 26 21 11 22 15 23
REMARK SMILES IDX 12 24 14 25 13 26 16 27 17 28 25 29 18 30 21 31 19 32 22 33
REMARK SMILES IDX 23 34 24 35 20 36
REMARK H PARENT 7 16 20 37
ROOT
ATOM      1  N   UNL     1      23.539   4.524  50.283  1.00  0.00    -0.170 NA
ATOM      2  N   UNL     1      23.937   3.434  49.829  1.00  0.00    -0.075 NA
ENDROOT
BRANCH   1   3
ATOM      3  C   UNL     1      24.640   5.487  50.470  1.00  0.00    +0.184 C 
BRANCH   3   4
ATOM      4  C   UNL     1      25.035   6.114  49.119  1.00  0.00    +0.110 C 
BRANCH   4   5
ATOM      5  N   UNL     1      26.472   6.378  48.889  1.00  0.00    -0.303 NA
ATOM      6  C   UNL     1      27.221   5.140  48.673  1.00  0.00    +0.105 C 
BRANCH   5   7
ATOM      7  C   UNL     1      26.687   7.361  47.808  1.00  0.00    +0.099 C 
BRANCH   7   8
ATOM      8  C   UNL     1      27.709   8.478  48.150  1.00  0.00    +0.100 C 
BRANCH   8   9
ATOM      9  N   UNL     1      29.122   8.105  47.939  1.00  0.00    -0.297 NA
ATOM     10  C   UNL     1      29.913   9.165  47.274  1.00  0.00    +0.113 C 
ATOM     11  C   UNL     1      29.791   7.781  49.221  1.00  0.00    +0.113 C 
ATOM     12  C   UNL     1      30.214  10.378  48.172  1.00  0.00    +0.175 C 
ATOM     13  C   UNL     1      30.114   9.009  50.092  1.00  0.00    +0.175 C 
ATOM     14  O   UNL     1      30.888   9.977  49.374  1.00  0.00    -0.379 OA
ENDBRANCH   8   9
ENDBRANCH   7   8
ENDBRANCH   5   7
ENDBRANCH   4   5
ENDBRANCH   3   4
ENDBRANCH   1   3
BRANCH   2  15
ATOM     15  N   UNL     1      22.840   2.666  49.711  1.00  0.00    -0.260 N 
ATOM     16  H   UNL     1      22.049   3.115  49.266  1.00  0.00    +0.192 HD
BRANCH  15  17
ATOM     17  C   UNL     1      22.561   1.713  50.703  1.00  0.00    +0.059 A 
ATOM     18  C   UNL     1      21.287   1.178  50.891  1.00  0.00    +0.030 A 
ATOM     19  C   UNL     1      23.557   1.350  51.617  1.00  0.00    +0.040 A 
ATOM     20  C   UNL     1      21.029   0.292  51.944  1.00  0.00    +0.031 A 
ATOM     21  C   UNL     1      23.307   0.429  52.674  1.00  0.00    +0.029 A 
ATOM     22  C   UNL     1      22.016  -0.089  52.840  1.00  0.00    +0.074 A 
ATOM     23  C   UNL     1      24.246  -0.022  53.620  1.00  0.00    +0.082 A 
ATOM     24  N   UNL     1      21.687  -0.927  53.830  1.00  0.00    -0.236 NA
ATOM     25  N   UNL     1      23.926  -0.854  54.637  1.00  0.00    -0.236 NA
ATOM     26  C   UNL     1      22.656  -1.263  54.688  1.00  0.00    +0.223 A 
BRANCH  23  27
ATOM     27  C   UNL     1      25.676   0.339  53.599  1.00  0.00    +0.008 A 
ATOM     28  C   UNL     1      26.090   1.682  53.558  1.00  0.00    +0.015 A 
ATOM     29  C   UNL     1      26.664  -0.662  53.563  1.00  0.00    +0.100 A 
ATOM     30  C   UNL     1      27.447   2.019  53.506  1.00  0.00    +0.054 A 
ATOM     31  C   UNL     1      28.028  -0.324  53.508  1.00  0.00    +0.311 A 
ATOM     32  C   UNL     1      28.420   1.021  53.481  1.00  0.00    +0.194 A 
BRANCH  31  33
ATOM     33  N   UNL     1      29.021  -1.398  53.478  1.00  0.00    +0.066 N 
ATOM     34  O   UNL     1      28.637  -2.522  53.113  1.00  0.00    -0.258 OA
ATOM     35  O   UNL     1      30.185  -1.129  53.803  1.00  0.00    -0.258 OA
ENDBRANCH  31  33
BRANCH  32  36
ATOM     36  O   UNL     1      29.709   1.472  53.425  1.00  0.00    -0.502 OA
ATOM     37  H   UNL     1      29.961   1.661  52.492  1.00  0.00    +0.293 HD
ENDBRANCH  32  36
ENDBRANCH  23  27
ENDBRANCH  15  17
ENDBRANCH   2  15
TORSDOF 11
ENDMDL
MODEL 4
REMARK VINA RESULT:    -7.544      1.845      2.556
REMARK INTER + INTRA:         -13.914
REMARK INTER:                 -12.744
REMARK INTRA:                  -1.170
REMARK UNBOUND:                -1.739
REMARK SMILES CN(CC/N=N/Nc1ccc2ncnc(-c3ccc(O)c([N+](=O)[O-])c3)c2c1)CCN1CCOCC1
REMARK SMILES IDX 5 1 6 2 4 3 3 4 2 5 1 6 28 7 29 8 30 9 31 10 35 11 32 12
REMARK SMILES IDX 34 13 33 14 7 15 8 17 9 18 27 19 10 20 26 21 11 22 15 23
REMARK SMILES IDX 12 24 14 25 13 26 16 27 17 28 25 29 18 30 21 31 19 32 22 33
REMARK SMILES IDX 23 34 24 35 20 36
REMARK H PARENT 7 16 20 37
ROOT
ATOM      1  N   UNL     1      23.806   3.396  49.034  1.00  0.00    -0.170 NA
ATOM      2  N   UNL     1      22.883   3.286  49.864  1.00  0.00    -0.075 NA
ENDROOT
BRANCH   1   3
ATOM      3  C   UNL     1      24.492   4.698  49.133  1.00  0.00    +0.184 C 
BRANCH   3   4
ATOM      4  C   UNL     1      24.066   5.429  50.421  1.00  0.00    +0.110 C 
BRANCH   4   5
ATOM      5  N   UNL     1      23.369   6.723  50.267  1.00  0.00    -0.303 NA
ATOM      6  C   UNL     1      22.021   6.683  50.834  1.00  0.00    +0.105 C 
BRANCH   5   7
ATOM      7  C   UNL     1      24.168   7.847  50.795  1.00  0.00    +0.099 C 
BRANCH   7   8
ATOM      8  C   UNL     1      25.676   7.790  50.432  1.00  0.00    +0.100 C 
BRANCH   8   9
ATOM      9  N   UNL     1      26.298   9.104  50.174  1.00  0.00    -0.297 NA
ATOM     10  C   UNL     1      27.778   9.061  50.181  1.00  0.00    +0.113 C 
ATOM     11  C   UNL     1      25.869   9.656  48.868  1.00  0.00    +0.113 C 
ATOM     12  C   UNL     1      28.390   8.366  48.953  1.00  0.00    +0.175 C 
ATOM     13  C   UNL     1      26.516   8.970  47.651  1.00  0.00    +0.175 C 
ATOM     14  O   UNL     1      27.946   8.982  47.735  1.00  0.00    -0.379 OA
ENDBRANCH   8   9
ENDBRANCH   7   8
ENDBRANCH   5   7
ENDBRANCH   4   5
ENDBRANCH   3   4
ENDBRANCH   1   3
BRANCH   2  15
ATOM     15  N   UNL     1      22.356   2.065  49.660  1.00  0.00    -0.260 N 
ATOM     16  H   UNL     1      21.683   2.010  48.906  1.00  0.00    +0.192 HD
BRANCH  15  17
ATOM     17  C   UNL     1      22.160   1.212  50.758  1.00  0.00    +0.059 A 
ATOM     18  C   UNL     1      20.919   0.652  51.059  1.00  0.00    +0.030 A 
ATOM     19  C   UNL     1      23.207   0.987  51.659  1.00  0.00    +0.040 A 
ATOM     20  C   UNL     1      20.743  -0.128  52.209  1.00  0.00    +0.031 A 
ATOM     21  C   UNL     1      23.041   0.174  52.816  1.00  0.00    +0.029 A 
ATOM     22  C   UNL     1      21.781  -0.373  53.094  1.00  0.00    +0.074 A 
ATOM     23  C   UNL     1      24.037  -0.137  53.760  1.00  0.00    +0.082 A 
ATOM     24  N   UNL     1      21.530  -1.114  54.180  1.00  0.00    -0.236 NA
ATOM     25  N   UNL     1      23.795  -0.869  54.872  1.00  0.00    -0.236 NA
ATOM     26  C   UNL     1      22.547  -1.319  55.023  1.00  0.00    +0.223 A 
BRANCH  23  27
ATOM     27  C   UNL     1      25.447   0.274  53.637  1.00  0.00    +0.008 A 
ATOM     28  C   UNL     1      25.803   1.624  53.467  1.00  0.00    +0.015 A 
ATOM     29  C   UNL     1      26.473  -0.688  53.631  1.00  0.00    +0.100 A 
ATOM     30  C   UNL     1      27.140   2.007  53.318  1.00  0.00    +0.054 A 
ATOM     31  C   UNL     1      27.818  -0.304  53.478  1.00  0.00    +0.311 A 
ATOM     32  C   UNL     1      28.151   1.047  53.323  1.00  0.00    +0.194 A 
BRANCH  31  33
ATOM     33  N   UNL     1      28.853  -1.340  53.483  1.00  0.00    +0.066 N 
ATOM     34  O   UNL     1      29.995  -1.005  53.839  1.00  0.00    -0.258 OA
ATOM     35  O   UNL     1      28.533  -2.489  53.148  1.00  0.00    -0.258 OA
ENDBRANCH  31  33
BRANCH  32  36
ATOM     36  O   UNL     1      29.417   1.540  53.166  1.00  0.00    -0.502 OA
ATOM     37  H   UNL     1      29.629   1.627  52.208  1.00  0.00    +0.293 HD
ENDBRANCH  32  36
ENDBRANCH  23  27
ENDBRANCH  15  17
ENDBRANCH   2  15
TORSDOF 11
ENDMDL
MODEL 5
REMARK VINA RESULT:    -7.514      2.159      3.669
REMARK INTER + INTRA:         -13.865
REMARK INTER:                 -12.027
REMARK INTRA:                  -1.838
REMARK UNBOUND:                -1.739
REMARK SMILES CN(CC/N=N/Nc1ccc2ncnc(-c3ccc(O)c([N+](=O)[O-])c3)c2c1)CCN1CCOCC1
REMARK SMILES IDX 5 1 6 2 4 3 3 4 2 5 1 6 28 7 29 8 30 9 31 10 35 11 32 12
REMARK SMILES IDX 34 13 33 14 7 15 8 17 9 18 27 19 10 20 26 21 11 22 15 23
REMARK SMILES IDX 12 24 14 25 13 26 16 27 17 28 25 29 18 30 21 31 19 32 22 33
REMARK SMILES IDX 23 34 24 35 20 36
REMARK H PARENT 7 16 20 37
ROOT
ATOM      1  N   UNL     1      24.679   6.523  50.833  1.00  0.00    -0.170 NA
ATOM      2  N   UNL     1      24.212   5.378  50.679  1.00  0.00    -0.075 NA
ENDROOT
BRANCH   1   3
ATOM      3  C   UNL     1      24.753   7.270  49.564  1.00  0.00    +0.184 C 
BRANCH   3   4
ATOM      4  C   UNL     1      24.327   6.370  48.389  1.00  0.00    +0.110 C 
BRANCH   4   5
ATOM      5  N   UNL     1      23.264   6.878  47.496  1.00  0.00    -0.303 NA
ATOM      6  C   UNL     1      23.800   7.776  46.473  1.00  0.00    +0.105 C 
BRANCH   5   7
ATOM      7  C   UNL     1      22.457   5.785  46.918  1.00  0.00    +0.099 C 
BRANCH   7   8
ATOM      8  C   UNL     1      22.414   4.494  47.780  1.00  0.00    +0.100 C 
BRANCH   8   9
ATOM      9  N   UNL     1      21.854   3.313  47.092  1.00  0.00    -0.297 NA
ATOM     10  C   UNL     1      22.460   2.037  47.535  1.00  0.00    +0.113 C 
ATOM     11  C   UNL     1      20.390   3.213  47.301  1.00  0.00    +0.113 C 
ATOM     12  C   UNL     1      22.036   1.600  48.948  1.00  0.00    +0.175 C 
ATOM     13  C   UNL     1      19.985   2.742  48.710  1.00  0.00    +0.175 C 
ATOM     14  O   UNL     1      20.608   1.499  49.052  1.00  0.00    -0.379 OA
ENDBRANCH   8   9
ENDBRANCH   7   8
ENDBRANCH   5   7
ENDBRANCH   4   5
ENDBRANCH   3   4
ENDBRANCH   1   3
BRANCH   2  15
ATOM     15  N   UNL     1      24.203   4.822  51.904  1.00  0.00    -0.260 N 
ATOM     16  H   UNL     1      25.076   4.892  52.412  1.00  0.00    +0.192 HD
BRANCH  15  17
ATOM     17  C   UNL     1      23.419   3.680  52.131  1.00  0.00    +0.059 A 
ATOM     18  C   UNL     1      22.025   3.707  52.083  1.00  0.00    +0.030 A 
ATOM     19  C   UNL     1      24.029   2.485  52.527  1.00  0.00    +0.040 A 
ATOM     20  C   UNL     1      21.274   2.568  52.398  1.00  0.00    +0.031 A 
ATOM     21  C   UNL     1      23.272   1.315  52.822  1.00  0.00    +0.029 A 
ATOM     22  C   UNL     1      21.873   1.374  52.769  1.00  0.00    +0.074 A 
ATOM     23  C   UNL     1      23.793   0.062  53.195  1.00  0.00    +0.082 A 
ATOM     24  N   UNL     1      21.086   0.334  53.070  1.00  0.00    -0.236 NA
ATOM     25  N   UNL     1      23.012  -0.993  53.520  1.00  0.00    -0.236 NA
ATOM     26  C   UNL     1      21.693  -0.798  53.441  1.00  0.00    +0.223 A 
BRANCH  23  27
ATOM     27  C   UNL     1      25.233  -0.248  53.252  1.00  0.00    +0.008 A 
ATOM     28  C   UNL     1      25.829  -1.124  52.329  1.00  0.00    +0.015 A 
ATOM     29  C   UNL     1      26.038   0.286  54.275  1.00  0.00    +0.100 A 
ATOM     30  C   UNL     1      27.189  -1.441  52.406  1.00  0.00    +0.054 A 
ATOM     31  C   UNL     1      27.405  -0.034  54.355  1.00  0.00    +0.311 A 
ATOM     32  C   UNL     1      27.982  -0.899  53.416  1.00  0.00    +0.194 A 
BRANCH  31  33
ATOM     33  N   UNL     1      28.205   0.550  55.433  1.00  0.00    +0.066 N 
ATOM     34  O   UNL     1      27.927   0.217  56.597  1.00  0.00    -0.258 OA
ATOM     35  O   UNL     1      29.118   1.330  55.127  1.00  0.00    -0.258 OA
ENDBRANCH  31  33
BRANCH  32  36
ATOM     36  O   UNL     1      29.294  -1.284  53.392  1.00  0.00    -0.502 OA
ATOM     37  H   UNL     1      29.431  -1.974  52.703  1.00  0.00    +0.293 HD
ENDBRANCH  32  36
ENDBRANCH  23  27
ENDBRANCH  15  17
ENDBRANCH   2  15
TORSDOF 11
ENDMDL
MODEL 6
REMARK VINA RESULT:    -7.424      3.271      4.755
REMARK INTER + INTRA:         -13.720
REMARK INTER:                 -12.364
REMARK INTRA:                  -1.356
REMARK UNBOUND:                -1.739
REMARK SMILES CN(CC/N=N/Nc1ccc2ncnc(-c3ccc(O)c([N+](=O)[O-])c3)c2c1)CCN1CCOCC1
REMARK SMILES IDX 5 1 6 2 4 3 3 4 2 5 1 6 28 7 29 8 30 9 31 10 35 11 32 12
REMARK SMILES IDX 34 13 33 14 7 15 8 17 9 18 27 19 10 20 26 21 11 22 15 23
REMARK SMILES IDX 12 24 14 25 13 26 16 27 17 28 25 29 18 30 21 31 19 32 22 33
REMARK SMILES IDX 23 34 24 35 20 36
REMARK H PARENT 7 16 20 37
ROOT
ATOM      1  N   UNL     1      25.221   6.768  50.565  1.00  0.00    -0.170 NA
ATOM      2  N   UNL     1      24.289   7.143  51.302  1.00  0.00    -0.075 NA
ENDROOT
BRANCH   1   3
ATOM      3  C   UNL     1      25.439   7.686  49.431  1.00  0.00    +0.184 C 
BRANCH   3   4
ATOM      4  C   UNL     1      26.166   6.955  48.286  1.00  0.00    +0.110 C 
BRANCH   4   5
ATOM      5  N   UNL     1      27.640   6.864  48.367  1.00  0.00    -0.303 NA
ATOM      6  C   UNL     1      28.098   5.475  48.349  1.00  0.00    +0.105 C 
BRANCH   5   7
ATOM      7  C   UNL     1      28.302   7.688  47.337  1.00  0.00    +0.099 C 
BRANCH   7   8
ATOM      8  C   UNL     1      29.846   7.527  47.280  1.00  0.00    +0.100 C 
BRANCH   8   9
ATOM      9  N   UNL     1      30.605   8.732  47.670  1.00  0.00    -0.297 NA
ATOM     10  C   UNL     1      30.000   9.460  48.808  1.00  0.00    +0.113 C 
ATOM     11  C   UNL     1      31.999   8.393  48.040  1.00  0.00    +0.113 C 
ATOM     12  C   UNL     1      30.155   8.744  50.161  1.00  0.00    +0.175 C 
ATOM     13  C   UNL     1      32.138   7.708  49.412  1.00  0.00    +0.175 C 
ATOM     14  O   UNL     1      31.536   8.483  50.455  1.00  0.00    -0.379 OA
ENDBRANCH   8   9
ENDBRANCH   7   8
ENDBRANCH   5   7
ENDBRANCH   4   5
ENDBRANCH   3   4
ENDBRANCH   1   3
BRANCH   2  15
ATOM     15  N   UNL     1      24.207   6.223  52.280  1.00  0.00    -0.260 N 
ATOM     16  H   UNL     1      25.050   6.105  52.828  1.00  0.00    +0.192 HD
BRANCH  15  17
ATOM     17  C   UNL     1      23.402   5.090  52.087  1.00  0.00    +0.059 A 
ATOM     18  C   UNL     1      22.079   5.175  51.655  1.00  0.00    +0.030 A 
ATOM     19  C   UNL     1      23.888   3.825  52.436  1.00  0.00    +0.040 A 
ATOM     20  C   UNL     1      21.281   4.028  51.554  1.00  0.00    +0.031 A 
ATOM     21  C   UNL     1      23.090   2.652  52.310  1.00  0.00    +0.029 A 
ATOM     22  C   UNL     1      21.763   2.769  51.877  1.00  0.00    +0.074 A 
ATOM     23  C   UNL     1      23.497   1.337  52.603  1.00  0.00    +0.082 A 
ATOM     24  N   UNL     1      20.934   1.724  51.770  1.00  0.00    -0.236 NA
ATOM     25  N   UNL     1      22.667   0.272  52.518  1.00  0.00    -0.236 NA
ATOM     26  C   UNL     1      21.423   0.525  52.105  1.00  0.00    +0.223 A 
BRANCH  23  27
ATOM     27  C   UNL     1      24.866   0.969  53.011  1.00  0.00    +0.008 A 
ATOM     28  C   UNL     1      25.911   0.892  52.074  1.00  0.00    +0.015 A 
ATOM     29  C   UNL     1      25.145   0.629  54.347  1.00  0.00    +0.100 A 
ATOM     30  C   UNL     1      27.201   0.512  52.459  1.00  0.00    +0.054 A 
ATOM     31  C   UNL     1      26.441   0.244  54.734  1.00  0.00    +0.311 A 
ATOM     32  C   UNL     1      27.472   0.186  53.788  1.00  0.00    +0.194 A 
BRANCH  31  33
ATOM     33  N   UNL     1      26.687  -0.095  56.137  1.00  0.00    +0.066 N 
ATOM     34  O   UNL     1      27.728   0.341  56.657  1.00  0.00    -0.258 OA
ATOM     35  O   UNL     1      25.845  -0.783  56.730  1.00  0.00    -0.258 OA
ENDBRANCH  31  33
BRANCH  32  36
ATOM     36  O   UNL     1      28.766  -0.174  54.043  1.00  0.00    -0.502 OA
ATOM     37  H   UNL     1      29.140   0.392  54.756  1.00  0.00    +0.293 HD
ENDBRANCH  32  36
ENDBRANCH  23  27
ENDBRANCH  15  17
ENDBRANCH   2  15
TORSDOF 11
ENDMDL
MODEL 7
REMARK VINA RESULT:    -7.386      3.873      5.998
REMARK INTER + INTRA:         -13.660
REMARK INTER:                 -12.368
REMARK INTRA:                  -1.292
REMARK UNBOUND:                -1.739
REMARK SMILES CN(CC/N=N/Nc1ccc2ncnc(-c3ccc(O)c([N+](=O)[O-])c3)c2c1)CCN1CCOCC1
REMARK SMILES IDX 5 1 6 2 4 3 3 4 2 5 1 6 28 7 29 8 30 9 31 10 35 11 32 12
REMARK SMILES IDX 34 13 33 14 7 15 8 17 9 18 27 19 10 20 26 21 11 22 15 23
REMARK SMILES IDX 12 24 14 25 13 26 16 27 17 28 25 29 18 30 21 31 19 32 22 33
REMARK SMILES IDX 23 34 24 35 20 36
REMARK H PARENT 7 16 20 37
ROOT
ATOM      1  N   UNL     1      21.222   3.508  50.965  1.00  0.00    -0.170 NA
ATOM      2  N   UNL     1      21.009   2.480  50.295  1.00  0.00    -0.075 NA
ENDROOT
BRANCH   1   3
ATOM      3  C   UNL     1      20.130   4.492  50.839  1.00  0.00    +0.184 C 
BRANCH   3   4
ATOM      4  C   UNL     1      18.808   3.780  50.496  1.00  0.00    +0.110 C 
BRANCH   4   5
ATOM      5  N   UNL     1      17.906   3.446  51.620  1.00  0.00    -0.303 NA
ATOM      6  C   UNL     1      16.717   4.297  51.630  1.00  0.00    +0.105 C 
BRANCH   5   7
ATOM      7  C   UNL     1      17.570   2.009  51.650  1.00  0.00    +0.099 C 
BRANCH   7   8
ATOM      8  C   UNL     1      16.051   1.707  51.773  1.00  0.00    +0.100 C 
BRANCH   8   9
ATOM      9  N   UNL     1      15.706   0.691  52.787  1.00  0.00    -0.297 NA
ATOM     10  C   UNL     1      14.247   0.526  52.975  1.00  0.00    +0.113 C 
ATOM     11  C   UNL     1      16.268  -0.634  52.435  1.00  0.00    +0.113 C 
ATOM     12  C   UNL     1      13.542  -0.186  51.808  1.00  0.00    +0.175 C 
ATOM     13  C   UNL     1      15.530  -1.347  51.287  1.00  0.00    +0.175 C 
ATOM     14  O   UNL     1      14.128  -1.472  51.556  1.00  0.00    -0.379 OA
ENDBRANCH   8   9
ENDBRANCH   7   8
ENDBRANCH   5   7
ENDBRANCH   4   5
ENDBRANCH   3   4
ENDBRANCH   1   3
BRANCH   2  15
ATOM     15  N   UNL     1      22.072   1.683  50.505  1.00  0.00    -0.260 N 
ATOM     16  H   UNL     1      22.539   1.363  49.665  1.00  0.00    +0.192 HD
BRANCH  15  17
ATOM     17  C   UNL     1      22.071   0.816  51.608  1.00  0.00    +0.059 A 
ATOM     18  C   UNL     1      20.916   0.178  52.059  1.00  0.00    +0.030 A 
ATOM     19  C   UNL     1      23.237   0.653  52.365  1.00  0.00    +0.040 A 
ATOM     20  C   UNL     1      20.936  -0.614  53.213  1.00  0.00    +0.031 A 
ATOM     21  C   UNL     1      23.271  -0.173  53.525  1.00  0.00    +0.029 A 
ATOM     22  C   UNL     1      22.093  -0.798  53.955  1.00  0.00    +0.074 A 
ATOM     23  C   UNL     1      24.397  -0.425  54.331  1.00  0.00    +0.082 A 
ATOM     24  N   UNL     1      22.029  -1.557  55.056  1.00  0.00    -0.236 NA
ATOM     25  N   UNL     1      24.345  -1.174  55.456  1.00  0.00    -0.236 NA
ATOM     26  C   UNL     1      23.156  -1.701  55.760  1.00  0.00    +0.223 A 
BRANCH  23  27
ATOM     27  C   UNL     1      25.752   0.073  54.033  1.00  0.00    +0.008 A 
ATOM     28  C   UNL     1      25.991   1.437  53.788  1.00  0.00    +0.015 A 
ATOM     29  C   UNL     1      26.834  -0.819  53.931  1.00  0.00    +0.100 A 
ATOM     30  C   UNL     1      27.273   1.901  53.475  1.00  0.00    +0.054 A 
ATOM     31  C   UNL     1      28.122  -0.354  53.612  1.00  0.00    +0.311 A 
ATOM     32  C   UNL     1      28.342   1.011  53.385  1.00  0.00    +0.194 A 
BRANCH  31  33
ATOM     33  N   UNL     1      29.220  -1.318  53.523  1.00  0.00    +0.066 N 
ATOM     34  O   UNL     1      28.945  -2.461  53.120  1.00  0.00    -0.258 OA
ATOM     35  O   UNL     1      30.357  -0.942  53.839  1.00  0.00    -0.258 OA
ENDBRANCH  31  33
BRANCH  32  36
ATOM     36  O   UNL     1      29.545   1.580  53.068  1.00  0.00    -0.502 OA
ATOM     37  H   UNL     1      29.806   1.330  52.153  1.00  0.00    +0.293 HD
ENDBRANCH  32  36
ENDBRANCH  23  27
ENDBRANCH  15  17
ENDBRANCH   2  15
TORSDOF 11
ENDMDL
MODEL 8
REMARK VINA RESULT:    -7.336      1.933      3.388
REMARK INTER + INTRA:         -13.578
REMARK INTER:                 -12.074
REMARK INTRA:                  -1.504
REMARK UNBOUND:                -1.739
REMARK SMILES CN(CC/N=N/Nc1ccc2ncnc(-c3ccc(O)c([N+](=O)[O-])c3)c2c1)CCN1CCOCC1
REMARK SMILES IDX 5 1 6 2 4 3 3 4 2 5 1 6 28 7 29 8 30 9 31 10 35 11 32 12
REMARK SMILES IDX 34 13 33 14 7 15 8 17 9 18 27 19 10 20 26 21 11 22 15 23
REMARK SMILES IDX 12 24 14 25 13 26 16 27 17 28 25 29 18 30 21 31 19 32 22 33
REMARK SMILES IDX 23 34 24 35 20 36
REMARK H PARENT 7 16 20 37
ROOT
ATOM      1  N   UNL     1      23.031   4.031  50.652  1.00  0.00    -0.170 NA
ATOM      2  N   UNL     1      21.937   3.436  50.624  1.00  0.00    -0.075 NA
ENDROOT
BRANCH   1   3
ATOM      3  C   UNL     1      22.876   5.474  50.915  1.00  0.00    +0.184 C 
BRANCH   3   4
ATOM      4  C   UNL     1      21.386   5.864  50.882  1.00  0.00    +0.110 C 
BRANCH   4   5
ATOM      5  N   UNL     1      21.038   7.157  50.254  1.00  0.00    -0.303 NA
ATOM      6  C   UNL     1      22.139   7.680  49.446  1.00  0.00    +0.105 C 
BRANCH   5   7
ATOM      7  C   UNL     1      19.772   7.080  49.497  1.00  0.00    +0.099 C 
BRANCH   7   8
ATOM      8  C   UNL     1      19.146   5.661  49.434  1.00  0.00    +0.100 C 
BRANCH   8   9
ATOM      9  N   UNL     1      18.767   5.214  48.078  1.00  0.00    -0.297 NA
ATOM     10  C   UNL     1      19.879   5.301  47.104  1.00  0.00    +0.113 C 
ATOM     11  C   UNL     1      18.284   3.814  48.088  1.00  0.00    +0.113 C 
ATOM     12  C   UNL     1      20.974   4.240  47.309  1.00  0.00    +0.175 C 
ATOM     13  C   UNL     1      19.397   2.764  48.260  1.00  0.00    +0.175 C 
ATOM     14  O   UNL     1      20.424   2.914  47.273  1.00  0.00    -0.379 OA
ENDBRANCH   8   9
ENDBRANCH   7   8
ENDBRANCH   5   7
ENDBRANCH   4   5
ENDBRANCH   3   4
ENDBRANCH   1   3
BRANCH   2  15
ATOM     15  N   UNL     1      22.230   2.147  50.379  1.00  0.00    -0.260 N 
ATOM     16  H   UNL     1      21.987   1.822  49.451  1.00  0.00    +0.192 HD
BRANCH  15  17
ATOM     17  C   UNL     1      22.149   1.215  51.426  1.00  0.00    +0.059 A 
ATOM     18  C   UNL     1      20.949   0.610  51.799  1.00  0.00    +0.030 A 
ATOM     19  C   UNL     1      23.278   0.949  52.208  1.00  0.00    +0.040 A 
ATOM     20  C   UNL     1      20.892  -0.252  52.902  1.00  0.00    +0.031 A 
ATOM     21  C   UNL     1      23.232   0.054  53.315  1.00  0.00    +0.029 A 
ATOM     22  C   UNL     1      22.012  -0.537  53.668  1.00  0.00    +0.074 A 
ATOM     23  C   UNL     1      24.316  -0.302  54.139  1.00  0.00    +0.082 A 
ATOM     24  N   UNL     1      21.873  -1.357  54.716  1.00  0.00    -0.236 NA
ATOM     25  N   UNL     1      24.190  -1.114  55.213  1.00  0.00    -0.236 NA
ATOM     26  C   UNL     1      22.967  -1.599  55.446  1.00  0.00    +0.223 A 
BRANCH  23  27
ATOM     27  C   UNL     1      25.703   0.146  53.916  1.00  0.00    +0.008 A 
ATOM     28  C   UNL     1      26.011   1.505  53.731  1.00  0.00    +0.015 A 
ATOM     29  C   UNL     1      26.750  -0.790  53.827  1.00  0.00    +0.100 A 
ATOM     30  C   UNL     1      27.324   1.923  53.488  1.00  0.00    +0.054 A 
ATOM     31  C   UNL     1      28.069  -0.371  53.579  1.00  0.00    +0.311 A 
ATOM     32  C   UNL     1      28.357   0.990  53.411  1.00  0.00    +0.194 A 
BRANCH  31  33
ATOM     33  N   UNL     1      29.127  -1.380  53.500  1.00  0.00    +0.066 N 
ATOM     34  O   UNL     1      30.284  -1.019  53.774  1.00  0.00    -0.258 OA
ATOM     35  O   UNL     1      28.813  -2.534  53.179  1.00  0.00    -0.258 OA
ENDBRANCH  31  33
BRANCH  32  36
ATOM     36  O   UNL     1      29.595   1.515  53.165  1.00  0.00    -0.502 OA
ATOM     37  H   UNL     1      29.922   1.213  52.287  1.00  0.00    +0.293 HD
ENDBRANCH  32  36
ENDBRANCH  23  27
ENDBRANCH  15  17
ENDBRANCH   2  15
TORSDOF 11
ENDMDL
MODEL 9
REMARK VINA RESULT:    -7.313      1.996      2.383
REMARK INTER + INTRA:         -13.541
REMARK INTER:                 -11.479
REMARK INTRA:                  -2.062
REMARK UNBOUND:                -1.739
REMARK SMILES CN(CC/N=N/Nc1ccc2ncnc(-c3ccc(O)c([N+](=O)[O-])c3)c2c1)CCN1CCOCC1
REMARK SMILES IDX 5 1 6 2 4 3 3 4 2 5 1 6 28 7 29 8 30 9 31 10 35 11 32 12
REMARK SMILES IDX 34 13 33 14 7 15 8 17 9 18 27 19 10 20 26 21 11 22 15 23
REMARK SMILES IDX 12 24 14 25 13 26 16 27 17 28 25 29 18 30 21 31 19 32 22 33
REMARK SMILES IDX 23 34 24 35 20 36
REMARK H PARENT 7 16 20 37
ROOT
ATOM      1  N   UNL     1      21.998   3.374  46.617  1.00  0.00    -0.170 NA
ATOM      2  N   UNL     1      22.362   3.344  47.808  1.00  0.00    -0.075 NA
ENDROOT
BRANCH   1   3
ATOM      3  C   UNL     1      21.805   4.752  46.127  1.00  0.00    +0.184 C 
BRANCH   3   4
ATOM      4  C   UNL     1      21.884   5.749  47.298  1.00  0.00    +0.110 C 
BRANCH   4   5
ATOM      5  N   UNL     1      20.702   6.605  47.541  1.00  0.00    -0.303 NA
ATOM      6  C   UNL     1      19.769   6.569  46.415  1.00  0.00    +0.105 C 
BRANCH   5   7
ATOM      7  C   UNL     1      20.046   6.289  48.825  1.00  0.00    +0.099 C 
BRANCH   7   8
ATOM      8  C   UNL     1      20.852   5.327  49.739  1.00  0.00    +0.100 C 
BRANCH   8   9
ATOM      9  N   UNL     1      21.181   5.874  51.070  1.00  0.00    -0.297 NA
ATOM     10  C   UNL     1      22.057   4.984  51.867  1.00  0.00    +0.113 C 
ATOM     11  C   UNL     1      21.856   7.188  50.960  1.00  0.00    +0.113 C 
ATOM     12  C   UNL     1      23.510   4.926  51.367  1.00  0.00    +0.175 C 
ATOM     13  C   UNL     1      23.320   7.109  50.491  1.00  0.00    +0.175 C 
ATOM     14  O   UNL     1      24.095   6.236  51.321  1.00  0.00    -0.379 OA
ENDBRANCH   8   9
ENDBRANCH   7   8
ENDBRANCH   5   7
ENDBRANCH   4   5
ENDBRANCH   3   4
ENDBRANCH   1   3
BRANCH   2  15
ATOM     15  N   UNL     1      22.497   2.041  48.114  1.00  0.00    -0.260 N 
ATOM     16  H   UNL     1      22.555   1.418  47.318  1.00  0.00    +0.192 HD
BRANCH  15  17
ATOM     17  C   UNL     1      21.885   1.543  49.274  1.00  0.00    +0.059 A 
ATOM     18  C   UNL     1      20.509   1.329  49.362  1.00  0.00    +0.030 A 
ATOM     19  C   UNL     1      22.644   1.348  50.433  1.00  0.00    +0.040 A 
ATOM     20  C   UNL     1      19.922   0.910  50.563  1.00  0.00    +0.031 A 
ATOM     21  C   UNL     1      22.058   0.897  51.650  1.00  0.00    +0.029 A 
ATOM     22  C   UNL     1      20.672   0.694  51.708  1.00  0.00    +0.074 A 
ATOM     23  C   UNL     1      22.739   0.642  52.854  1.00  0.00    +0.082 A 
ATOM     24  N   UNL     1      20.037   0.310  52.821  1.00  0.00    -0.236 NA
ATOM     25  N   UNL     1      22.110   0.271  53.993  1.00  0.00    -0.236 NA
ATOM     26  C   UNL     1      20.785   0.126  53.915  1.00  0.00    +0.223 A 
BRANCH  23  27
ATOM     27  C   UNL     1      24.204   0.725  53.006  1.00  0.00    +0.008 A 
ATOM     28  C   UNL     1      24.846   1.955  53.232  1.00  0.00    +0.015 A 
ATOM     29  C   UNL     1      25.002  -0.425  52.872  1.00  0.00    +0.100 A 
ATOM     30  C   UNL     1      26.238   2.035  53.344  1.00  0.00    +0.054 A 
ATOM     31  C   UNL     1      26.402  -0.346  52.982  1.00  0.00    +0.311 A 
ATOM     32  C   UNL     1      27.021   0.888  53.220  1.00  0.00    +0.194 A 
BRANCH  31  33
ATOM     33  N   UNL     1      27.192  -1.570  52.841  1.00  0.00    +0.066 N 
ATOM     34  O   UNL     1      28.196  -1.689  53.562  1.00  0.00    -0.258 OA
ATOM     35  O   UNL     1      26.812  -2.422  52.025  1.00  0.00    -0.258 OA
ENDBRANCH  31  33
BRANCH  32  36
ATOM     36  O   UNL     1      28.367   1.090  53.343  1.00  0.00    -0.502 OA
ATOM     37  H   UNL     1      28.805   1.000  52.466  1.00  0.00    +0.293 HD
ENDBRANCH  32  36
ENDBRANCH  23  27
ENDBRANCH  15  17
ENDBRANCH   2  15
TORSDOF 11
ENDMDL
