REMARK SMILES CCN(C)c1ccc(-c2cc(O)ccc2[N+](=O)[O-])[nH]1
REMARK SMILES IDX 5 1 6 2 7 3 8 4 19 5 3 7 4 8 2 9 1 10 9 11 10 12 15 13 11 14
REMARK SMILES IDX 14 15 13 16 16 17 17 18 18 19 12 20
REMARK H PARENT 19 6 12 21
ROOT
ATOM      1  C   UNL     1      -1.560  -0.122  -0.481  1.00  0.00    +0.106 A 
ATOM      2  C   UNL     1      -1.309   0.681  -1.574  1.00  0.00    +0.047 A 
ATOM      3  C   UNL     1       0.087   0.913  -1.637  1.00  0.00    +0.031 A 
ATOM      4  C   UNL     1       0.685   0.243  -0.584  1.00  0.00    +0.054 A 
ATOM      5  N   UNL     1      -0.342  -0.368   0.107  1.00  0.00    -0.341 N 
ATOM      6  H   UNL     1      -0.215  -0.950   0.924  1.00  0.00    +0.168 HD
ENDROOT
BRANCH   1   7
ATOM      7  N   UNL     1      -2.718  -0.647   0.018  1.00  0.00    -0.362 N 
ATOM      8  C   UNL     1      -2.745  -1.375   1.284  1.00  0.00    +0.145 C 
BRANCH   7   9
ATOM      9  C   UNL     1      -4.014  -0.236  -0.530  1.00  0.00    +0.114 C 
ATOM     10  C   UNL     1      -4.501   1.053   0.116  1.00  0.00    +0.027 C 
ENDBRANCH   7   9
ENDBRANCH   1   7
BRANCH   4  11
ATOM     11  C   UNL     1       2.098   0.185  -0.184  1.00  0.00    +0.079 A 
ATOM     12  C   UNL     1       2.844   1.378  -0.239  1.00  0.00    +0.063 A 
ATOM     13  C   UNL     1       2.781  -0.976   0.221  1.00  0.00    +0.278 A 
ATOM     14  C   UNL     1       4.199   1.390   0.097  1.00  0.00    +0.116 A 
ATOM     15  C   UNL     1       4.146  -0.967   0.552  1.00  0.00    +0.090 A 
ATOM     16  C   UNL     1       4.854   0.229   0.489  1.00  0.00    +0.053 A 
BRANCH  13  17
ATOM     17  N   UNL     1       2.106  -2.255   0.311  1.00  0.00    +0.063 N 
ATOM     18  O   UNL     1       2.463  -3.140  -0.476  1.00  0.00    -0.258 OA
ATOM     19  O   UNL     1       1.255  -2.380   1.206  1.00  0.00    -0.258 OA
ENDBRANCH  13  17
BRANCH  14  20
ATOM     20  O   UNL     1       4.930   2.540   0.053  1.00  0.00    -0.508 OA
ATOM     21  H   UNL     1       4.358   3.271  -0.235  1.00  0.00    +0.293 HD
ENDBRANCH  14  20
ENDBRANCH   4  11
TORSDOF 5
