REMARK SMILES Cc1cccc(C=C2C(=O)N(C)c3ncnc(Nc4ccccn4)c32)c1
REMARK SMILES IDX 7 1 8 2 9 3 10 4 11 5 12 6 13 7 14 8 15 9 16 10 17 11 25 12
REMARK SMILES IDX 6 13 2 14 3 15 26 16 4 17 5 18 1 19 18 20 19 22 20 23 24 24
REMARK SMILES IDX 21 25 23 26 22 27
REMARK H PARENT 18 21
ROOT
ATOM      1  C   UNL     1       1.807   1.765  -0.499  1.00  0.00    +0.023 C 
ATOM      2  C   UNL     1       0.668   2.386  -0.146  1.00  0.00    +0.055 C 
ATOM      3  C   UNL     1       0.754   3.884   0.031  1.00  0.00    +0.260 C 
ATOM      4  O   UNL     1       1.698   4.596  -0.260  1.00  0.00    -0.269 OA
ATOM      5  N   UNL     1      -0.446   4.240   0.606  1.00  0.00    -0.295 N 
ATOM      6  C   UNL     1      -0.838   5.573   0.973  1.00  0.00    +0.155 C 
ATOM      7  C   UNL     1      -1.299   3.139   0.737  1.00  0.00    +0.148 A 
ATOM      8  N   UNL     1      -2.535   3.239   1.232  1.00  0.00    -0.218 NA
ATOM      9  C   UNL     1      -3.206   2.088   1.200  1.00  0.00    +0.226 A 
ATOM     10  N   UNL     1      -2.756   0.928   0.699  1.00  0.00    -0.218 NA
ATOM     11  C   UNL     1      -1.492   0.861   0.217  1.00  0.00    +0.145 A 
ATOM     12  C   UNL     1      -0.692   1.984   0.247  1.00  0.00    +0.073 A 
ENDROOT
BRANCH   1  13
ATOM     13  C   UNL     1       2.076   0.332  -0.571  1.00  0.00    -0.025 A 
ATOM     14  C   UNL     1       2.293  -1.840   0.504  1.00  0.00    -0.051 A 
ATOM     15  C   UNL     1       2.561  -2.415  -0.745  1.00  0.00    +0.003 A 
ATOM     16  C   UNL     1       2.052  -0.462   0.583  1.00  0.00    +0.011 A 
ATOM     17  C   UNL     1       2.612  -1.623  -1.892  1.00  0.00    +0.001 A 
ATOM     18  C   UNL     1       2.374  -0.252  -1.806  1.00  0.00    +0.008 A 
ATOM     19  C   UNL     1       2.196  -2.696   1.732  1.00  0.00    +0.044 C 
ENDBRANCH   1  13
BRANCH  11  20
ATOM     20  N   UNL     1      -1.110  -0.310  -0.456  1.00  0.00    -0.324 N 
ATOM     21  H   UNL     1      -0.129  -0.333  -0.686  1.00  0.00    +0.170 HD
BRANCH  20  22
ATOM     22  C   UNL     1      -1.506  -1.628  -0.123  1.00  0.00    +0.131 A 
ATOM     23  C   UNL     1      -1.233  -2.635  -1.052  1.00  0.00    +0.047 A 
ATOM     24  N   UNL     1      -2.094  -1.911   1.059  1.00  0.00    -0.239 NA
ATOM     25  C   UNL     1      -1.582  -3.954  -0.766  1.00  0.00    +0.005 A 
ATOM     26  C   UNL     1      -2.433  -3.194   1.314  1.00  0.00    +0.113 A 
ATOM     27  C   UNL     1      -2.197  -4.242   0.443  1.00  0.00    +0.020 A 
ENDBRANCH  20  22
ENDBRANCH  11  20
TORSDOF 3
