REMARK SMILES O=C(O)c1cc(O)c(O)c(N2CCN(Cc3cccc(Br)c3)CC2)c1
REMARK SMILES IDX 4 1 5 2 6 3 8 4 10 5 25 6 2 7 1 8 3 9 7 11 11 13 12 14 24 15
REMARK SMILES IDX 13 16 23 17 14 18 15 19 16 20 17 21 22 22 18 23 20 24 19 25
REMARK SMILES IDX 21 26 9 27
REMARK H PARENT 3 10 7 12 9 28
ROOT
ATOM      1  C   UNL     1      -4.844   0.384  -0.177  1.00  0.00    +0.065 A 
ATOM      2  C   UNL     1      -5.239  -0.945  -0.021  1.00  0.00    +0.066 A 
ATOM      3  C   UNL     1      -4.261  -1.924  -0.004  1.00  0.00    +0.160 A 
ATOM      4  C   UNL     1      -2.902  -1.597  -0.138  1.00  0.00    +0.181 A 
ATOM      5  C   UNL     1      -2.463  -0.267  -0.292  1.00  0.00    +0.084 A 
ATOM      6  C   UNL     1      -3.480   0.708  -0.311  1.00  0.00    +0.045 A 
ENDROOT
BRANCH   1   7
ATOM      7  C   UNL     1      -5.829   1.492  -0.206  1.00  0.00    +0.335 C 
ATOM      8  O   UNL     1      -5.576   2.673  -0.356  1.00  0.00    -0.246 OA
BRANCH   7   9
ATOM      9  O   UNL     1      -7.095   1.067  -0.044  1.00  0.00    -0.478 OA
ATOM     10  H   UNL     1      -7.622   1.894  -0.082  1.00  0.00    +0.297 HD
ENDBRANCH   7   9
ENDBRANCH   1   7
BRANCH   3  11
ATOM     11  O   UNL     1      -4.580  -3.251   0.134  1.00  0.00    -0.504 OA
ATOM     12  H   UNL     1      -5.546  -3.328   0.220  1.00  0.00    +0.293 HD
ENDBRANCH   3  11
BRANCH   5  13
ATOM     13  N   UNL     1      -1.131   0.101  -0.422  1.00  0.00    -0.366 N 
ATOM     14  C   UNL     1      -0.724   1.377  -1.028  1.00  0.00    +0.132 C 
ATOM     15  C   UNL     1      -0.049  -0.740   0.119  1.00  0.00    +0.132 C 
ATOM     16  C   UNL     1       0.697   1.260  -1.626  1.00  0.00    +0.106 C 
ATOM     17  C   UNL     1       1.199   0.110   0.464  1.00  0.00    +0.106 C 
ATOM     18  N   UNL     1       1.751   0.928  -0.641  1.00  0.00    -0.296 NA
BRANCH  18  19
ATOM     19  C   UNL     1       2.882   0.275  -1.317  1.00  0.00    +0.120 C 
BRANCH  19  20
ATOM     20  C   UNL     1       4.137   0.220  -0.469  1.00  0.00    -0.033 A 
ATOM     21  C   UNL     1       4.657   1.385   0.116  1.00  0.00    +0.005 A 
ATOM     22  C   UNL     1       4.818  -0.992  -0.284  1.00  0.00    +0.020 A 
ATOM     23  C   UNL     1       5.824   1.339   0.882  1.00  0.00    +0.001 A 
ATOM     24  C   UNL     1       5.983  -1.031   0.482  1.00  0.00    +0.018 A 
ATOM     25  C   UNL     1       6.489   0.128   1.067  1.00  0.00    +0.016 A 
ATOM     26 Br   UNL     1       6.886  -2.674   0.729  1.00  0.00    -0.051 Br
ENDBRANCH  19  20
ENDBRANCH  18  19
ENDBRANCH   5  13
BRANCH   4  27
ATOM     27  O   UNL     1      -2.021  -2.655  -0.148  1.00  0.00    -0.503 OA
ATOM     28  H   UNL     1      -2.586  -3.447  -0.051  1.00  0.00    +0.293 HD
ENDBRANCH   4  27
TORSDOF 7
