REMARK SMILES CN(c1ccccn1)c1ccc(-c2ccc(O)c([N+](=O)[O-])c2)[nH]1
REMARK SMILES IDX 13 1 14 2 15 3 16 4 18 5 22 6 12 7 9 8 10 9 23 10 11 11 2 13
REMARK SMILES IDX 1 14 3 15 4 16 8 17 5 18 7 19 6 20 19 21 20 22 21 23 17 24
REMARK H PARENT 23 12 17 25
ROOT
ATOM      1  C   UNL     1      -2.474   0.074  -0.265  1.00  0.00    +0.005 A 
ATOM      2  C   UNL     1      -3.034  -1.196  -0.484  1.00  0.00    +0.014 A 
ATOM      3  C   UNL     1      -4.405  -1.426  -0.306  1.00  0.00    +0.054 A 
ATOM      4  C   UNL     1      -5.236  -0.385   0.098  1.00  0.00    +0.194 A 
ATOM      5  C   UNL     1      -4.680   0.873   0.322  1.00  0.00    +0.311 A 
ATOM      6  C   UNL     1      -3.313   1.118   0.138  1.00  0.00    +0.100 A 
ENDROOT
BRANCH   1   7
ATOM      7  C   UNL     1      -1.044   0.314  -0.459  1.00  0.00    +0.047 A 
ATOM      8  C   UNL     1       1.182  -0.130  -0.431  1.00  0.00    +0.111 A 
ATOM      9  C   UNL     1       1.018   1.160  -0.891  1.00  0.00    +0.047 A 
ATOM     10  N   UNL     1      -0.073  -0.622  -0.169  1.00  0.00    -0.341 N 
ATOM     11  C   UNL     1      -0.371   1.438  -0.909  1.00  0.00    +0.030 A 
ATOM     12  H   UNL     1      -0.243  -1.529   0.238  1.00  0.00    +0.168 HD
BRANCH   8  13
ATOM     13  N   UNL     1       2.281  -0.908  -0.200  1.00  0.00    -0.316 N 
ATOM     14  C   UNL     1       2.379  -2.170  -0.945  1.00  0.00    +0.153 C 
BRANCH  13  15
ATOM     15  C   UNL     1       3.570  -0.365   0.088  1.00  0.00    +0.133 A 
ATOM     16  C   UNL     1       3.682   0.758   0.918  1.00  0.00    +0.047 A 
ATOM     17  N   UNL     1       4.687  -0.968  -0.392  1.00  0.00    -0.239 NA
ATOM     18  C   UNL     1       4.937   1.284   1.226  1.00  0.00    +0.005 A 
ATOM     19  C   UNL     1       5.893  -0.440  -0.084  1.00  0.00    +0.113 A 
ATOM     20  C   UNL     1       6.069   0.676   0.711  1.00  0.00    +0.020 A 
ENDBRANCH  13  15
ENDBRANCH   8  13
ENDBRANCH   1   7
BRANCH   5  21
ATOM     21  N   UNL     1      -5.514   1.972   0.759  1.00  0.00    +0.066 N 
ATOM     22  O   UNL     1      -6.042   1.880   1.875  1.00  0.00    -0.258 OA
ATOM     23  O   UNL     1      -5.587   2.953   0.004  1.00  0.00    -0.258 OA
ENDBRANCH   5  21
BRANCH   4  24
ATOM     24  O   UNL     1      -6.574  -0.598   0.244  1.00  0.00    -0.502 OA
ATOM     25  H   UNL     1      -6.780  -1.537   0.100  1.00  0.00    +0.293 HD
ENDBRANCH   4  24
TORSDOF 5
