REMARK SMILES O=[N+]([O-])c1ccc(O)cc1-c1ccccc1
REMARK SMILES IDX 4 1 5 2 6 3 7 4 9 5 10 6 2 7 1 8 3 9 11 10 12 11 16 12 13 13
REMARK SMILES IDX 15 14 14 15 8 16
REMARK H PARENT 8 17
ROOT
ATOM      1  C   UNL     1      -1.261   1.067   0.014  1.00  0.00    +0.277 A 
ATOM      2  C   UNL     1      -2.662   1.070   0.105  1.00  0.00    +0.090 A 
ATOM      3  C   UNL     1      -3.335  -0.141   0.247  1.00  0.00    +0.053 A 
ATOM      4  C   UNL     1      -2.602  -1.324   0.297  1.00  0.00    +0.116 A 
ATOM      5  C   UNL     1      -1.209  -1.319   0.202  1.00  0.00    +0.062 A 
ATOM      6  C   UNL     1      -0.500  -0.114   0.053  1.00  0.00    +0.063 A 
ENDROOT
BRANCH   1   7
ATOM      7  N   UNL     1      -0.604   2.351  -0.109  1.00  0.00    +0.063 N 
ATOM      8  O   UNL     1      -0.111   2.833   0.919  1.00  0.00    -0.258 OA
ATOM      9  O   UNL     1      -0.633   2.888  -1.225  1.00  0.00    -0.258 OA
ENDBRANCH   1   7
BRANCH   6  10
ATOM     10  C   UNL     1       0.964  -0.143  -0.061  1.00  0.00    -0.011 A 
ATOM     11  C   UNL     1       1.598   0.134  -1.283  1.00  0.00    +0.009 A 
ATOM     12  C   UNL     1       1.762  -0.457   1.050  1.00  0.00    +0.009 A 
ATOM     13  C   UNL     1       2.990   0.106  -1.388  1.00  0.00    +0.001 A 
ATOM     14  C   UNL     1       3.155  -0.486   0.944  1.00  0.00    +0.001 A 
ATOM     15  C   UNL     1       3.768  -0.204  -0.274  1.00  0.00    +0.000 A 
ENDBRANCH   6  10
BRANCH   4  16
ATOM     16  O   UNL     1      -3.218  -2.532   0.437  1.00  0.00    -0.508 OA
ATOM     17  H   UNL     1      -4.179  -2.398   0.485  1.00  0.00    +0.293 HD
ENDBRANCH   4  16
TORSDOF 3
