REMARK SMILES CN(CC/N=N/Nc1ccc2ncnc(-c3cccc(Cl)c3)c2c1)c1ccc(O)c([N+](=O)[O-])c1
REMARK SMILES IDX 4 1 3 2 2 3 1 4 25 5 26 6 34 7 27 8 30 9 28 10 31 11 32 12
REMARK SMILES IDX 33 13 29 14 5 16 6 17 7 18 8 20 9 21 24 22 10 23 23 24 11 25
REMARK SMILES IDX 15 26 12 27 14 28 13 29 16 30 17 31 22 32 18 33 20 34 19 35
REMARK SMILES IDX 21 36
REMARK H PARENT 29 15 7 19
ROOT
ATOM      1  C   UNL     1      -2.046  -1.761   0.025  1.00  0.00    +0.190 C 
ENDROOT
BRANCH   1   2
ATOM      2  C   UNL     1      -2.800  -1.678  -1.306  1.00  0.00    +0.142 C 
BRANCH   2   3
ATOM      3  N   UNL     1      -4.252  -1.870  -1.134  1.00  0.00    -0.372 N 
ATOM      4  C   UNL     1      -4.709  -3.261  -1.097  1.00  0.00    +0.143 C 
BRANCH   3   5
ATOM      5  C   UNL     1      -5.080  -0.850  -0.670  1.00  0.00    +0.044 A 
ATOM      6  C   UNL     1      -4.637   0.483  -0.542  1.00  0.00    +0.030 A 
ATOM      7  C   UNL     1      -6.422  -1.083  -0.327  1.00  0.00    +0.115 A 
ATOM      8  C   UNL     1      -5.463   1.523  -0.082  1.00  0.00    +0.056 A 
ATOM      9  C   UNL     1      -7.248  -0.040   0.125  1.00  0.00    +0.312 A 
ATOM     10  C   UNL     1      -6.781   1.260   0.260  1.00  0.00    +0.194 A 
BRANCH   9  11
ATOM     11  N   UNL     1      -8.622  -0.359   0.449  1.00  0.00    +0.066 N 
ATOM     12  O   UNL     1      -8.806  -1.185   1.356  1.00  0.00    -0.258 OA
ATOM     13  O   UNL     1      -9.510   0.164  -0.239  1.00  0.00    -0.258 OA
ENDBRANCH   9  11
BRANCH  10  14
ATOM     14  O   UNL     1      -7.579   2.255   0.736  1.00  0.00    -0.502 OA
ATOM     15  H   UNL     1      -7.111   3.106   0.687  1.00  0.00    +0.293 HD
ENDBRANCH  10  14
ENDBRANCH   3   5
ENDBRANCH   2   3
ENDBRANCH   1   2
BRANCH   1  16
ATOM     16  N   UNL     1      -0.604  -1.588  -0.218  1.00  0.00    -0.169 NA
ATOM     17  N   UNL     1      -0.243  -0.407  -0.061  1.00  0.00    -0.075 NA
BRANCH  17  18
ATOM     18  N   UNL     1       1.073  -0.389  -0.337  1.00  0.00    -0.260 N 
ATOM     19  H   UNL     1       1.519  -1.301  -0.336  1.00  0.00    +0.192 HD
BRANCH  18  20
ATOM     20  C   UNL     1       1.857   0.672   0.145  1.00  0.00    +0.059 A 
ATOM     21  C   UNL     1       1.310   1.873   0.596  1.00  0.00    +0.030 A 
ATOM     22  C   UNL     1       3.252   0.587   0.067  1.00  0.00    +0.040 A 
ATOM     23  C   UNL     1       2.134   2.929   1.001  1.00  0.00    +0.031 A 
ATOM     24  C   UNL     1       4.094   1.654   0.488  1.00  0.00    +0.029 A 
ATOM     25  C   UNL     1       3.518   2.841   0.956  1.00  0.00    +0.074 A 
ATOM     26  C   UNL     1       5.501   1.651   0.468  1.00  0.00    +0.082 A 
ATOM     27  N   UNL     1       4.239   3.896   1.350  1.00  0.00    -0.236 NA
ATOM     28  N   UNL     1       6.245   2.715   0.846  1.00  0.00    -0.236 NA
ATOM     29  C   UNL     1       5.569   3.783   1.274  1.00  0.00    +0.223 A 
BRANCH  26  30
ATOM     30  C   UNL     1       6.306   0.496   0.040  1.00  0.00    +0.002 A 
ATOM     31  C   UNL     1       7.119   0.579  -1.105  1.00  0.00    +0.010 A 
ATOM     32  C   UNL     1       6.306  -0.703   0.771  1.00  0.00    +0.030 A 
ATOM     33  C   UNL     1       7.889  -0.510  -1.521  1.00  0.00    +0.002 A 
ATOM     34  C   UNL     1       7.076  -1.788   0.351  1.00  0.00    +0.041 A 
ATOM     35  C   UNL     1       7.864  -1.698  -0.794  1.00  0.00    +0.020 A 
ATOM     36 Cl   UNL     1       7.047  -3.253   1.254  1.00  0.00    -0.084 Cl
ENDBRANCH  26  30
ENDBRANCH  18  20
ENDBRANCH  17  18
ENDBRANCH   1  16
TORSDOF 9
