REMARK SMILES N#CC(C#N)=C(C#N)C(N)=Cn1ncc2cc(C(=O)O)ccc21
REMARK SMILES IDX 12 1 13 2 14 3 15 4 16 5 17 6 21 7 22 8 23 9 11 10 9 11 6 12
REMARK SMILES IDX 1 13 2 14 3 15 4 16 5 17 7 18 8 19 10 20 18 23 19 24 20 25
REMARK H PARENT 10 21 10 22 20 26
ROOT
ATOM      1  N   UNL     1      -0.146  -0.677  -0.130  1.00  0.00    -0.238 N 
ATOM      2  N   UNL     1      -0.187  -2.010   0.192  1.00  0.00    -0.176 NA
ATOM      3  C   UNL     1       1.085  -2.395   0.256  1.00  0.00    +0.144 A 
ATOM      4  C   UNL     1       1.988  -1.355  -0.011  1.00  0.00    +0.021 A 
ATOM      5  C   UNL     1       3.388  -1.236  -0.069  1.00  0.00    +0.027 A 
ATOM      6  C   UNL     1       3.956   0.008  -0.382  1.00  0.00    +0.060 A 
ATOM      7  C   UNL     1       3.136   1.113  -0.633  1.00  0.00    +0.018 A 
ATOM      8  C   UNL     1       1.740   1.007  -0.578  1.00  0.00    +0.030 A 
ATOM      9  C   UNL     1       1.184  -0.246  -0.261  1.00  0.00    +0.073 A 
ENDROOT
BRANCH   1  10
ATOM     10  C   UNL     1      -1.280   0.139  -0.288  1.00  0.00    +0.140 C 
ATOM     11  C   UNL     1      -2.571  -0.251  -0.191  1.00  0.00    +0.070 C 
BRANCH  11  12
ATOM     12  C   UNL     1      -3.648   0.735  -0.421  1.00  0.00    +0.105 C 
ATOM     13  N   UNL     1      -6.503   2.713  -0.061  1.00  0.00    -0.192 NA
ATOM     14  C   UNL     1      -5.679   1.929   0.162  1.00  0.00    +0.112 C 
ATOM     15  C   UNL     1      -4.660   0.974   0.444  1.00  0.00    +0.149 C 
ATOM     16  C   UNL     1      -4.740   0.302   1.694  1.00  0.00    +0.112 C 
ATOM     17  N   UNL     1      -4.771  -0.277   2.699  1.00  0.00    -0.192 NA
ATOM     18  C   UNL     1      -3.582   1.454  -1.662  1.00  0.00    +0.104 C 
ATOM     19  N   UNL     1      -3.501   2.063  -2.645  1.00  0.00    -0.192 NA
ENDBRANCH  11  12
BRANCH  11  20
ATOM     20  N   UNL     1      -2.957  -1.568   0.024  1.00  0.00    -0.396 N 
ATOM     21  H   UNL     1      -3.487  -1.713   0.884  1.00  0.00    +0.156 HD
ATOM     22  H   UNL     1      -2.124  -2.177   0.105  1.00  0.00    +0.156 HD
ENDBRANCH  11  20
ENDBRANCH   1  10
BRANCH   6  23
ATOM     23  C   UNL     1       5.436   0.100  -0.435  1.00  0.00    +0.335 C 
ATOM     24  O   UNL     1       6.212  -0.814  -0.229  1.00  0.00    -0.246 OA
BRANCH  23  25
ATOM     25  O   UNL     1       5.873   1.334  -0.742  1.00  0.00    -0.478 OA
ATOM     26  H   UNL     1       6.849   1.245  -0.743  1.00  0.00    +0.297 HD
ENDBRANCH  23  25
ENDBRANCH   6  23
TORSDOF 5
