REMARK SMILES Cc1cc(-c2ccccn2)[nH]c1-c1ccccc1
REMARK SMILES IDX 1 1 2 2 3 3 4 4 11 5 12 6 13 8 14 9 18 10 15 11 17 12 16 13
REMARK SMILES IDX 5 14 6 15 10 16 7 17 9 18 8 19
REMARK H PARENT 11 7
ROOT
ATOM      1  C   UNL     1       1.716  -0.474  -2.690  1.00  0.00    +0.047 C 
ATOM      2  C   UNL     1       0.698  -0.326  -1.615  1.00  0.00    -0.025 A 
ATOM      3  C   UNL     1      -0.708  -0.513  -1.771  1.00  0.00    +0.034 A 
ATOM      4  C   UNL     1      -1.323  -0.268  -0.557  1.00  0.00    +0.065 A 
ATOM      5  N   UNL     1      -0.316   0.059   0.321  1.00  0.00    -0.353 N 
ATOM      6  C   UNL     1       0.915   0.029  -0.290  1.00  0.00    +0.049 A 
ATOM      7  H   UNL     1      -0.488   0.271   1.295  1.00  0.00    +0.167 HD
ENDROOT
BRANCH   6   8
ATOM      8  C   UNL     1       2.144   0.329   0.443  1.00  0.00    -0.002 A 
ATOM      9  C   UNL     1       2.248   1.497   1.210  1.00  0.00    +0.010 A 
ATOM     10  C   UNL     1       3.233  -0.549   0.397  1.00  0.00    +0.010 A 
ATOM     11  C   UNL     1       3.420   1.781   1.915  1.00  0.00    +0.001 A 
ATOM     12  C   UNL     1       4.405  -0.266   1.103  1.00  0.00    +0.001 A 
ATOM     13  C   UNL     1       4.498   0.899   1.861  1.00  0.00    +0.000 A 
ENDBRANCH   6   8
BRANCH   4  14
ATOM     14  C   UNL     1      -2.716  -0.304  -0.126  1.00  0.00    +0.086 A 
ATOM     15  C   UNL     1      -3.760  -0.640  -0.979  1.00  0.00    +0.030 A 
ATOM     16  N   UNL     1      -2.902   0.021   1.179  1.00  0.00    -0.255 NA
ATOM     17  C   UNL     1      -5.058  -0.646  -0.473  1.00  0.00    +0.004 A 
ATOM     18  C   UNL     1      -4.172   0.005   1.638  1.00  0.00    +0.112 A 
ATOM     19  C   UNL     1      -5.271  -0.318   0.860  1.00  0.00    +0.020 A 
ENDBRANCH   4  14
TORSDOF 2
