REMARK SMILES Cc1cc(Cc2cc(C(=O)O)cc(O)c2O)[nH]c1N1CCOCC1
REMARK SMILES IDX 6 1 7 2 8 3 12 4 13 5 15 6 5 7 4 8 2 9 3 10 18 11 17 12 1 13
REMARK SMILES IDX 19 15 20 16 24 17 21 18 23 19 22 20 16 21 9 23 10 24 11 25
REMARK SMILES IDX 14 27
REMARK H PARENT 17 14 16 22 11 26 14 28
ROOT
ATOM      1  C   UNL     1      -2.606  -0.757   0.387  1.00  0.00    +0.004 A 
ATOM      2  C   UNL     1      -3.280   0.258   1.095  1.00  0.00    +0.024 A 
ATOM      3  C   UNL     1      -4.168   1.135   0.446  1.00  0.00    +0.064 A 
ATOM      4  C   UNL     1      -4.397   1.003  -0.926  1.00  0.00    +0.065 A 
ATOM      5  C   UNL     1      -3.734   0.006  -1.624  1.00  0.00    +0.158 A 
ATOM      6  C   UNL     1      -2.843  -0.862  -0.988  1.00  0.00    +0.161 A 
ENDROOT
BRANCH   1   7
ATOM      7  C   UNL     1      -1.685  -1.691   1.141  1.00  0.00    +0.093 C 
BRANCH   7   8
ATOM      8  C   UNL     1      -0.252  -1.584   0.735  1.00  0.00    +0.021 A 
ATOM      9  C   UNL     1       1.909  -1.925   0.109  1.00  0.00    -0.009 A 
ATOM     10  C   UNL     1       0.686  -2.562   0.480  1.00  0.00    +0.029 A 
ATOM     11  C   UNL     1       1.680  -0.559   0.161  1.00  0.00    +0.109 A 
ATOM     12  N   UNL     1       0.378  -0.378   0.561  1.00  0.00    -0.345 N 
ATOM     13  C   UNL     1       3.146  -2.650  -0.283  1.00  0.00    +0.048 C 
ATOM     14  H   UNL     1      -0.036   0.531   0.710  1.00  0.00    +0.168 HD
BRANCH  11  15
ATOM     15  N   UNL     1       2.432   0.555  -0.064  1.00  0.00    -0.353 N 
ATOM     16  C   UNL     1       3.892   0.538   0.152  1.00  0.00    +0.146 C 
ATOM     17  C   UNL     1       2.001   1.448  -1.169  1.00  0.00    +0.146 C 
ATOM     18  C   UNL     1       4.638   0.798  -1.165  1.00  0.00    +0.181 C 
ATOM     19  C   UNL     1       3.033   2.563  -1.401  1.00  0.00    +0.181 C 
ATOM     20  O   UNL     1       4.336   2.074  -1.754  1.00  0.00    -0.378 OA
ENDBRANCH  11  15
ENDBRANCH   7   8
ENDBRANCH   1   7
BRANCH   6  21
ATOM     21  O   UNL     1      -2.237  -1.790  -1.792  1.00  0.00    -0.504 OA
ATOM     22  H   UNL     1      -1.449  -2.135  -1.334  1.00  0.00    +0.293 HD
ENDBRANCH   6  21
BRANCH   3  23
ATOM     23  C   UNL     1      -4.885   2.209   1.174  1.00  0.00    +0.335 C 
ATOM     24  O   UNL     1      -5.672   3.002   0.692  1.00  0.00    -0.246 OA
BRANCH  23  25
ATOM     25  O   UNL     1      -4.576   2.244   2.483  1.00  0.00    -0.478 OA
ATOM     26  H   UNL     1      -5.118   2.986   2.828  1.00  0.00    +0.297 HD
ENDBRANCH  23  25
ENDBRANCH   3  23
BRANCH   5  27
ATOM     27  O   UNL     1      -3.955  -0.119  -2.967  1.00  0.00    -0.504 OA
ATOM     28  H   UNL     1      -3.410  -0.886  -3.235  1.00  0.00    +0.293 HD
ENDBRANCH   5  27
TORSDOF 7
