MODEL 1
REMARK VINA RESULT:    -8.290      0.000      0.000
REMARK INTER + INTRA:         -11.209
REMARK INTER:                 -10.470
REMARK INTRA:                  -0.739
REMARK UNBOUND:                -0.739
REMARK SMILES CN(C)/N=N/c1ccc2ncnc(-c3ccc(O)c([N+](=O)[O-])c3)c2c1
REMARK SMILES IDX 6 1 7 2 8 3 9 4 10 5 11 6 12 7 13 8 24 9 25 10 5 11 4 12
REMARK SMILES IDX 2 13 1 14 3 15 14 16 15 17 23 18 16 19 19 20 17 21 20 22
REMARK SMILES IDX 21 23 22 24 18 25
REMARK H PARENT 18 26
ROOT
ATOM      1  C   UNL     1      22.164   1.045  51.326  1.00  0.00    +0.088 A 
ATOM      2  C   UNL     1      20.954   0.467  51.697  1.00  0.00    +0.032 A 
ATOM      3  C   UNL     1      20.874  -0.325  52.848  1.00  0.00    +0.031 A 
ATOM      4  C   UNL     1      21.984  -0.574  53.646  1.00  0.00    +0.074 A 
ATOM      5  N   UNL     1      21.826  -1.329  54.737  1.00  0.00    -0.236 NA
ATOM      6  C   UNL     1      22.911  -1.539  55.492  1.00  0.00    +0.223 A 
ATOM      7  N   UNL     1      24.139  -1.074  55.250  1.00  0.00    -0.236 NA
ATOM      8  C   UNL     1      24.286  -0.329  54.133  1.00  0.00    +0.082 A 
ATOM      9  C   UNL     1      23.217  -0.020  53.274  1.00  0.00    +0.029 A 
ATOM     10  C   UNL     1      23.292   0.792  52.110  1.00  0.00    +0.043 A 
ENDROOT
BRANCH   1  11
ATOM     11  N   UNL     1      22.239   1.821  50.158  1.00  0.00    -0.133 NA
ATOM     12  N   UNL     1      23.338   2.406  50.101  1.00  0.00    -0.072 NA
BRANCH  12  13
ATOM     13  N   UNL     1      23.498   3.168  48.970  1.00  0.00    -0.285 N 
ATOM     14  C   UNL     1      22.423   3.248  47.989  1.00  0.00    +0.169 C 
ATOM     15  C   UNL     1      24.269   4.380  49.192  1.00  0.00    +0.169 C 
ENDBRANCH  12  13
ENDBRANCH   1  11
BRANCH   8  16
ATOM     16  C   UNL     1      25.670   0.123  53.917  1.00  0.00    +0.008 A 
ATOM     17  C   UNL     1      25.982   1.486  53.773  1.00  0.00    +0.015 A 
ATOM     18  C   UNL     1      26.715  -0.812  53.810  1.00  0.00    +0.100 A 
ATOM     19  C   UNL     1      27.296   1.908  53.552  1.00  0.00    +0.054 A 
ATOM     20  C   UNL     1      28.036  -0.389  53.586  1.00  0.00    +0.311 A 
ATOM     21  C   UNL     1      28.327   0.975  53.459  1.00  0.00    +0.194 A 
BRANCH  20  22
ATOM     22  N   UNL     1      29.093  -1.397  53.492  1.00  0.00    +0.066 N 
ATOM     23  O   UNL     1      28.757  -2.549  53.166  1.00  0.00    -0.258 OA
ATOM     24  O   UNL     1      30.258  -1.050  53.732  1.00  0.00    -0.258 OA
ENDBRANCH  20  22
BRANCH  21  25
ATOM     25  O   UNL     1      29.570   1.503  53.241  1.00  0.00    -0.502 OA
ATOM     26  H   UNL     1      29.899   1.231  52.358  1.00  0.00    +0.293 HD
ENDBRANCH  21  25
ENDBRANCH   8  16
TORSDOF 5
ENDMDL
MODEL 2
REMARK VINA RESULT:    -8.103      3.185      6.270
REMARK INTER + INTRA:         -10.974
REMARK INTER:                 -10.361
REMARK INTRA:                  -0.612
REMARK UNBOUND:                -0.739
REMARK SMILES CN(C)/N=N/c1ccc2ncnc(-c3ccc(O)c([N+](=O)[O-])c3)c2c1
REMARK SMILES IDX 6 1 7 2 8 3 9 4 10 5 11 6 12 7 13 8 24 9 25 10 5 11 4 12
REMARK SMILES IDX 2 13 1 14 3 15 14 16 15 17 23 18 16 19 19 20 17 21 20 22
REMARK SMILES IDX 21 23 22 24 18 25
REMARK H PARENT 18 26
ROOT
ATOM      1  C   UNL     1      25.420  -0.277  54.042  1.00  0.00    +0.088 A 
ATOM      2  C   UNL     1      25.069  -0.967  55.198  1.00  0.00    +0.032 A 
ATOM      3  C   UNL     1      23.733  -1.308  55.438  1.00  0.00    +0.031 A 
ATOM      4  C   UNL     1      22.718  -0.966  54.554  1.00  0.00    +0.074 A 
ATOM      5  N   UNL     1      21.468  -1.339  54.846  1.00  0.00    -0.236 NA
ATOM      6  C   UNL     1      20.514  -1.005  53.968  1.00  0.00    +0.223 A 
ATOM      7  N   UNL     1      20.694  -0.324  52.834  1.00  0.00    -0.236 NA
ATOM      8  C   UNL     1      21.959   0.063  52.563  1.00  0.00    +0.082 A 
ATOM      9  C   UNL     1      23.049  -0.248  53.396  1.00  0.00    +0.029 A 
ATOM     10  C   UNL     1      24.407   0.088  53.150  1.00  0.00    +0.043 A 
ENDROOT
BRANCH   1  11
ATOM     11  N   UNL     1      26.759   0.079  53.819  1.00  0.00    -0.133 NA
ATOM     12  N   UNL     1      27.500  -0.502  54.637  1.00  0.00    -0.072 NA
BRANCH  12  13
ATOM     13  N   UNL     1      28.834  -0.224  54.465  1.00  0.00    -0.285 N 
ATOM     14  C   UNL     1      29.671  -1.128  53.686  1.00  0.00    +0.169 C 
ATOM     15  C   UNL     1      29.119   1.195  54.344  1.00  0.00    +0.169 C 
ENDBRANCH  12  13
ENDBRANCH   1  11
BRANCH   8  16
ATOM     16  C   UNL     1      22.075   0.833  51.314  1.00  0.00    +0.008 A 
ATOM     17  C   UNL     1      21.433   0.417  50.135  1.00  0.00    +0.015 A 
ATOM     18  C   UNL     1      22.870   1.991  51.264  1.00  0.00    +0.100 A 
ATOM     19  C   UNL     1      21.560   1.144  48.948  1.00  0.00    +0.054 A 
ATOM     20  C   UNL     1      23.000   2.721  50.070  1.00  0.00    +0.311 A 
ATOM     21  C   UNL     1      22.341   2.297  48.910  1.00  0.00    +0.194 A 
BRANCH  20  22
ATOM     22  N   UNL     1      23.830   3.927  50.068  1.00  0.00    +0.066 N 
ATOM     23  O   UNL     1      23.653   4.745  50.986  1.00  0.00    -0.258 OA
ATOM     24  O   UNL     1      24.664   4.063  49.161  1.00  0.00    -0.258 OA
ENDBRANCH  20  22
BRANCH  21  25
ATOM     25  O   UNL     1      22.393   2.924  47.695  1.00  0.00    -0.502 OA
ATOM     26  H   UNL     1      22.884   2.370  47.053  1.00  0.00    +0.293 HD
ENDBRANCH  21  25
ENDBRANCH   8  16
TORSDOF 5
ENDMDL
MODEL 3
REMARK VINA RESULT:    -8.086      1.748      2.300
REMARK INTER + INTRA:         -10.952
REMARK INTER:                  -9.857
REMARK INTRA:                  -1.095
REMARK UNBOUND:                -0.739
REMARK SMILES CN(C)/N=N/c1ccc2ncnc(-c3ccc(O)c([N+](=O)[O-])c3)c2c1
REMARK SMILES IDX 6 1 7 2 8 3 9 4 10 5 11 6 12 7 13 8 24 9 25 10 5 11 4 12
REMARK SMILES IDX 2 13 1 14 3 15 14 16 15 17 23 18 16 19 19 20 17 21 20 22
REMARK SMILES IDX 21 23 22 24 18 25
REMARK H PARENT 18 26
ROOT
ATOM      1  C   UNL     1      22.670   2.772  51.796  1.00  0.00    +0.088 A 
ATOM      2  C   UNL     1      21.298   2.703  52.022  1.00  0.00    +0.032 A 
ATOM      3  C   UNL     1      20.765   1.682  52.817  1.00  0.00    +0.031 A 
ATOM      4  C   UNL     1      21.568   0.703  53.391  1.00  0.00    +0.074 A 
ATOM      5  N   UNL     1      20.986  -0.232  54.148  1.00  0.00    -0.236 NA
ATOM      6  C   UNL     1      21.787  -1.153  54.698  1.00  0.00    +0.223 A 
ATOM      7  N   UNL     1      23.112  -1.230  54.550  1.00  0.00    -0.236 NA
ATOM      8  C   UNL     1      23.682  -0.289  53.766  1.00  0.00    +0.082 A 
ATOM      9  C   UNL     1      22.949   0.742  53.153  1.00  0.00    +0.029 A 
ATOM     10  C   UNL     1      23.488   1.787  52.356  1.00  0.00    +0.043 A 
ENDROOT
BRANCH   1  11
ATOM     11  N   UNL     1      23.194   3.789  50.982  1.00  0.00    -0.133 NA
ATOM     12  N   UNL     1      24.421   3.628  50.831  1.00  0.00    -0.072 NA
BRANCH  12  13
ATOM     13  N   UNL     1      25.004   4.572  50.022  1.00  0.00    -0.285 N 
ATOM     14  C   UNL     1      24.867   5.988  50.341  1.00  0.00    +0.169 C 
ATOM     15  C   UNL     1      26.277   4.150  49.463  1.00  0.00    +0.169 C 
ENDBRANCH  12  13
ENDBRANCH   1  11
BRANCH   8  16
ATOM     16  C   UNL     1      25.138  -0.455  53.627  1.00  0.00    +0.008 A 
ATOM     17  C   UNL     1      25.693  -1.220  52.586  1.00  0.00    +0.015 A 
ATOM     18  C   UNL     1      26.011   0.122  54.566  1.00  0.00    +0.100 A 
ATOM     19  C   UNL     1      27.076  -1.387  52.470  1.00  0.00    +0.054 A 
ATOM     20  C   UNL     1      27.401  -0.048  54.450  1.00  0.00    +0.311 A 
ATOM     21  C   UNL     1      27.934  -0.802  53.398  1.00  0.00    +0.194 A 
BRANCH  20  22
ATOM     22  N   UNL     1      28.273   0.579  55.445  1.00  0.00    +0.066 N 
ATOM     23  O   UNL     1      28.058   0.316  56.640  1.00  0.00    -0.258 OA
ATOM     24  O   UNL     1      29.177   1.327  55.046  1.00  0.00    -0.258 OA
ENDBRANCH  20  22
BRANCH  21  25
ATOM     25  O   UNL     1      29.266  -1.035  53.184  1.00  0.00    -0.502 OA
ATOM     26  H   UNL     1      29.379  -1.746  52.519  1.00  0.00    +0.293 HD
ENDBRANCH  21  25
ENDBRANCH   8  16
TORSDOF 5
ENDMDL
MODEL 4
REMARK VINA RESULT:    -8.031      1.852      4.649
REMARK INTER + INTRA:         -10.882
REMARK INTER:                 -10.078
REMARK INTRA:                  -0.804
REMARK UNBOUND:                -0.739
REMARK SMILES CN(C)/N=N/c1ccc2ncnc(-c3ccc(O)c([N+](=O)[O-])c3)c2c1
REMARK SMILES IDX 6 1 7 2 8 3 9 4 10 5 11 6 12 7 13 8 24 9 25 10 5 11 4 12
REMARK SMILES IDX 2 13 1 14 3 15 14 16 15 17 23 18 16 19 19 20 17 21 20 22
REMARK SMILES IDX 21 23 22 24 18 25
REMARK H PARENT 18 26
ROOT
ATOM      1  C   UNL     1      22.432   1.782  51.734  1.00  0.00    +0.088 A 
ATOM      2  C   UNL     1      21.923   2.701  50.821  1.00  0.00    +0.032 A 
ATOM      3  C   UNL     1      22.790   3.477  50.044  1.00  0.00    +0.031 A 
ATOM      4  C   UNL     1      24.171   3.375  50.160  1.00  0.00    +0.074 A 
ATOM      5  N   UNL     1      24.933   4.140  49.374  1.00  0.00    -0.236 NA
ATOM      6  C   UNL     1      26.259   4.009  49.500  1.00  0.00    +0.223 A 
ATOM      7  N   UNL     1      26.891   3.193  50.348  1.00  0.00    -0.236 NA
ATOM      8  C   UNL     1      26.106   2.440  51.149  1.00  0.00    +0.082 A 
ATOM      9  C   UNL     1      24.702   2.473  51.093  1.00  0.00    +0.029 A 
ATOM     10  C   UNL     1      23.819   1.678  51.872  1.00  0.00    +0.043 A 
ENDROOT
BRANCH   1  11
ATOM     11  N   UNL     1      21.555   1.022  52.523  1.00  0.00    -0.133 NA
ATOM     12  N   UNL     1      22.030  -0.114  52.720  1.00  0.00    -0.072 NA
BRANCH  12  13
ATOM     13  N   UNL     1      21.238  -0.913  53.510  1.00  0.00    -0.285 N 
ATOM     14  C   UNL     1      21.777  -1.483  54.738  1.00  0.00    +0.169 C 
ATOM     15  C   UNL     1      19.846  -0.499  53.539  1.00  0.00    +0.169 C 
ENDBRANCH  12  13
ENDBRANCH   1  11
BRANCH   8  16
ATOM     16  C   UNL     1      26.872   1.588  52.074  1.00  0.00    +0.008 A 
ATOM     17  C   UNL     1      27.690   2.142  53.074  1.00  0.00    +0.015 A 
ATOM     18  C   UNL     1      26.829   0.188  51.950  1.00  0.00    +0.100 A 
ATOM     19  C   UNL     1      28.426   1.327  53.938  1.00  0.00    +0.054 A 
ATOM     20  C   UNL     1      27.571  -0.631  52.817  1.00  0.00    +0.311 A 
ATOM     21  C   UNL     1      28.370  -0.060  53.815  1.00  0.00    +0.194 A 
BRANCH  20  22
ATOM     22  N   UNL     1      27.489  -2.084  52.657  1.00  0.00    +0.066 N 
ATOM     23  O   UNL     1      28.366  -2.770  53.208  1.00  0.00    -0.258 OA
ATOM     24  O   UNL     1      26.553  -2.549  51.992  1.00  0.00    -0.258 OA
ENDBRANCH  20  22
BRANCH  21  25
ATOM     25  O   UNL     1      29.132  -0.754  54.714  1.00  0.00    -0.502 OA
ATOM     26  H   UNL     1      29.568  -1.511  54.269  1.00  0.00    +0.293 HD
ENDBRANCH  21  25
ENDBRANCH   8  16
TORSDOF 5
ENDMDL
MODEL 5
REMARK VINA RESULT:    -7.702      2.754      6.285
REMARK INTER + INTRA:         -10.467
REMARK INTER:                 -10.284
REMARK INTRA:                  -0.183
REMARK UNBOUND:                -0.739
REMARK SMILES CN(C)/N=N/c1ccc2ncnc(-c3ccc(O)c([N+](=O)[O-])c3)c2c1
REMARK SMILES IDX 6 1 7 2 8 3 9 4 10 5 11 6 12 7 13 8 24 9 25 10 5 11 4 12
REMARK SMILES IDX 2 13 1 14 3 15 14 16 15 17 23 18 16 19 19 20 17 21 20 22
REMARK SMILES IDX 21 23 22 24 18 25
REMARK H PARENT 18 26
ROOT
ATOM      1  C   UNL     1      26.507   2.373  51.530  1.00  0.00    +0.088 A 
ATOM      2  C   UNL     1      26.754   3.238  50.468  1.00  0.00    +0.032 A 
ATOM      3  C   UNL     1      25.709   3.640  49.629  1.00  0.00    +0.031 A 
ATOM      4  C   UNL     1      24.407   3.190  49.809  1.00  0.00    +0.074 A 
ATOM      5  N   UNL     1      23.461   3.629  48.974  1.00  0.00    -0.236 NA
ATOM      6  C   UNL     1      22.215   3.187  49.181  1.00  0.00    +0.223 A 
ATOM      7  N   UNL     1      21.832   2.338  50.138  1.00  0.00    -0.236 NA
ATOM      8  C   UNL     1      22.803   1.887  50.962  1.00  0.00    +0.082 A 
ATOM      9  C   UNL     1      24.144   2.298  50.858  1.00  0.00    +0.029 A 
ATOM     10  C   UNL     1      25.205   1.900  51.716  1.00  0.00    +0.043 A 
ENDROOT
BRANCH   1  11
ATOM     11  N   UNL     1      27.564   1.959  52.355  1.00  0.00    -0.133 NA
ATOM     12  N   UNL     1      27.273   0.887  52.921  1.00  0.00    -0.072 NA
BRANCH  12  13
ATOM     13  N   UNL     1      28.273   0.402  53.729  1.00  0.00    -0.285 N 
ATOM     14  C   UNL     1      28.854  -0.907  53.459  1.00  0.00    +0.169 C 
ATOM     15  C   UNL     1      29.178   1.430  54.212  1.00  0.00    +0.169 C 
ENDBRANCH  12  13
ENDBRANCH   1  11
BRANCH   8  16
ATOM     16  C   UNL     1      22.312   0.935  51.971  1.00  0.00    +0.008 A 
ATOM     17  C   UNL     1      20.956   0.571  52.036  1.00  0.00    +0.015 A 
ATOM     18  C   UNL     1      23.191   0.394  52.925  1.00  0.00    +0.100 A 
ATOM     19  C   UNL     1      20.493  -0.322  53.007  1.00  0.00    +0.054 A 
ATOM     20  C   UNL     1      22.726  -0.501  53.902  1.00  0.00    +0.311 A 
ATOM     21  C   UNL     1      21.374  -0.861  53.942  1.00  0.00    +0.194 A 
BRANCH  20  22
ATOM     22  N   UNL     1      23.679  -1.047  54.870  1.00  0.00    +0.066 N 
ATOM     23  O   UNL     1      23.215  -1.639  55.859  1.00  0.00    -0.258 OA
ATOM     24  O   UNL     1      24.890  -0.896  54.650  1.00  0.00    -0.258 OA
ENDBRANCH  20  22
BRANCH  21  25
ATOM     25  O   UNL     1      20.808  -1.721  54.843  1.00  0.00    -0.502 OA
ATOM     26  H   UNL     1      20.028  -2.161  54.443  1.00  0.00    +0.293 HD
ENDBRANCH  21  25
ENDBRANCH   8  16
TORSDOF 5
ENDMDL
MODEL 6
REMARK VINA RESULT:    -7.529      1.575      2.280
REMARK INTER + INTRA:         -10.248
REMARK INTER:                  -9.746
REMARK INTRA:                  -0.502
REMARK UNBOUND:                -0.739
REMARK SMILES CN(C)/N=N/c1ccc2ncnc(-c3ccc(O)c([N+](=O)[O-])c3)c2c1
REMARK SMILES IDX 6 1 7 2 8 3 9 4 10 5 11 6 12 7 13 8 24 9 25 10 5 11 4 12
REMARK SMILES IDX 2 13 1 14 3 15 14 16 15 17 23 18 16 19 19 20 17 21 20 22
REMARK SMILES IDX 21 23 22 24 18 25
REMARK H PARENT 18 26
ROOT
ATOM      1  C   UNL     1      23.502   3.072  50.203  1.00  0.00    +0.088 A 
ATOM      2  C   UNL     1      22.167   2.720  50.029  1.00  0.00    +0.032 A 
ATOM      3  C   UNL     1      21.613   1.669  50.769  1.00  0.00    +0.031 A 
ATOM      4  C   UNL     1      22.364   0.937  51.680  1.00  0.00    +0.074 A 
ATOM      5  N   UNL     1      21.761  -0.044  52.358  1.00  0.00    -0.236 NA
ATOM      6  C   UNL     1      22.507  -0.722  53.238  1.00  0.00    +0.223 A 
ATOM      7  N   UNL     1      23.802  -0.518  53.492  1.00  0.00    -0.236 NA
ATOM      8  C   UNL     1      24.402   0.464  52.784  1.00  0.00    +0.082 A 
ATOM      9  C   UNL     1      23.717   1.260  51.849  1.00  0.00    +0.029 A 
ATOM     10  C   UNL     1      24.274   2.335  51.106  1.00  0.00    +0.043 A 
ENDROOT
BRANCH   1  11
ATOM     11  N   UNL     1      24.055   4.114  49.443  1.00  0.00    -0.133 NA
ATOM     12  N   UNL     1      24.789   4.825  50.158  1.00  0.00    -0.072 NA
BRANCH  12  13
ATOM     13  N   UNL     1      25.390   5.856  49.477  1.00  0.00    -0.285 N 
ATOM     14  C   UNL     1      26.620   5.615  48.732  1.00  0.00    +0.169 C 
ATOM     15  C   UNL     1      24.445   6.792  48.892  1.00  0.00    +0.169 C 
ENDBRANCH  12  13
ENDBRANCH   1  11
BRANCH   8  16
ATOM     16  C   UNL     1      25.833   0.612  53.097  1.00  0.00    +0.008 A 
ATOM     17  C   UNL     1      26.395   1.868  53.379  1.00  0.00    +0.015 A 
ATOM     18  C   UNL     1      26.682  -0.509  53.083  1.00  0.00    +0.100 A 
ATOM     19  C   UNL     1      27.758   2.004  53.659  1.00  0.00    +0.054 A 
ATOM     20  C   UNL     1      28.052  -0.372  53.363  1.00  0.00    +0.311 A 
ATOM     21  C   UNL     1      28.591   0.886  53.654  1.00  0.00    +0.194 A 
BRANCH  20  22
ATOM     22  N   UNL     1      28.897  -1.568  53.346  1.00  0.00    +0.066 N 
ATOM     23  O   UNL     1      30.111  -1.413  53.561  1.00  0.00    -0.258 OA
ATOM     24  O   UNL     1      28.360  -2.663  53.127  1.00  0.00    -0.258 OA
ENDBRANCH  20  22
BRANCH  21  25
ATOM     25  O   UNL     1      29.904   1.140  53.941  1.00  0.00    -0.502 OA
ATOM     26  H   UNL     1      30.168   0.657  54.753  1.00  0.00    +0.293 HD
ENDBRANCH  21  25
ENDBRANCH   8  16
TORSDOF 5
ENDMDL
MODEL 7
REMARK VINA RESULT:    -7.521      2.944      4.669
REMARK INTER + INTRA:         -10.238
REMARK INTER:                  -9.312
REMARK INTRA:                  -0.927
REMARK UNBOUND:                -0.739
REMARK SMILES CN(C)/N=N/c1ccc2ncnc(-c3ccc(O)c([N+](=O)[O-])c3)c2c1
REMARK SMILES IDX 6 1 7 2 8 3 9 4 10 5 11 6 12 7 13 8 24 9 25 10 5 11 4 12
REMARK SMILES IDX 2 13 1 14 3 15 14 16 15 17 23 18 16 19 19 20 17 21 20 22
REMARK SMILES IDX 21 23 22 24 18 25
REMARK H PARENT 18 26
ROOT
ATOM      1  C   UNL     1      26.430   4.119  49.434  1.00  0.00    +0.088 A 
ATOM      2  C   UNL     1      25.254   4.727  49.006  1.00  0.00    +0.032 A 
ATOM      3  C   UNL     1      24.018   4.298  49.502  1.00  0.00    +0.031 A 
ATOM      4  C   UNL     1      23.915   3.256  50.416  1.00  0.00    +0.074 A 
ATOM      5  N   UNL     1      22.700   2.913  50.854  1.00  0.00    -0.236 NA
ATOM      6  C   UNL     1      22.635   1.915  51.744  1.00  0.00    +0.223 A 
ATOM      7  N   UNL     1      23.671   1.223  52.225  1.00  0.00    -0.236 NA
ATOM      8  C   UNL     1      24.890   1.569  51.758  1.00  0.00    +0.082 A 
ATOM      9  C   UNL     1      25.088   2.616  50.839  1.00  0.00    +0.029 A 
ATOM     10  C   UNL     1      26.342   3.061  50.342  1.00  0.00    +0.043 A 
ENDROOT
BRANCH   1  11
ATOM     11  N   UNL     1      27.664   4.543  48.916  1.00  0.00    -0.133 NA
ATOM     12  N   UNL     1      27.619   5.757  48.636  1.00  0.00    -0.072 NA
BRANCH  12  13
ATOM     13  N   UNL     1      28.802   6.253  48.146  1.00  0.00    -0.285 N 
ATOM     14  C   UNL     1      29.943   5.364  47.964  1.00  0.00    +0.169 C 
ATOM     15  C   UNL     1      28.624   7.299  47.153  1.00  0.00    +0.169 C 
ENDBRANCH  12  13
ENDBRANCH   1  11
BRANCH   8  16
ATOM     16  C   UNL     1      25.978   0.745  52.310  1.00  0.00    +0.008 A 
ATOM     17  C   UNL     1      26.242  -0.545  51.820  1.00  0.00    +0.015 A 
ATOM     18  C   UNL     1      26.758   1.223  53.378  1.00  0.00    +0.100 A 
ATOM     19  C   UNL     1      27.266  -1.328  52.360  1.00  0.00    +0.054 A 
ATOM     20  C   UNL     1      27.786   0.435  53.923  1.00  0.00    +0.311 A 
ATOM     21  C   UNL     1      28.042  -0.842  53.411  1.00  0.00    +0.194 A 
BRANCH  20  22
ATOM     22  N   UNL     1      28.579   0.977  55.028  1.00  0.00    +0.066 N 
ATOM     23  O   UNL     1      28.464   0.428  56.137  1.00  0.00    -0.258 OA
ATOM     24  O   UNL     1      29.322   1.942  54.799  1.00  0.00    -0.258 OA
ENDBRANCH  20  22
BRANCH  21  25
ATOM     25  O   UNL     1      29.012  -1.696  53.859  1.00  0.00    -0.502 OA
ATOM     26  H   UNL     1      29.595  -1.960  53.115  1.00  0.00    +0.293 HD
ENDBRANCH  21  25
ENDBRANCH   8  16
TORSDOF 5
ENDMDL
MODEL 8
REMARK VINA RESULT:    -7.449      4.302      6.911
REMARK INTER + INTRA:         -10.147
REMARK INTER:                  -9.255
REMARK INTRA:                  -0.892
REMARK UNBOUND:                -0.739
REMARK SMILES CN(C)/N=N/c1ccc2ncnc(-c3ccc(O)c([N+](=O)[O-])c3)c2c1
REMARK SMILES IDX 6 1 7 2 8 3 9 4 10 5 11 6 12 7 13 8 24 9 25 10 5 11 4 12
REMARK SMILES IDX 2 13 1 14 3 15 14 16 15 17 23 18 16 19 19 20 17 21 20 22
REMARK SMILES IDX 21 23 22 24 18 25
REMARK H PARENT 18 26
ROOT
ATOM      1  C   UNL     1      25.054   0.012  53.962  1.00  0.00    +0.088 A 
ATOM      2  C   UNL     1      24.992  -0.868  55.038  1.00  0.00    +0.032 A 
ATOM      3  C   UNL     1      23.783  -1.485  55.375  1.00  0.00    +0.031 A 
ATOM      4  C   UNL     1      22.611  -1.239  54.670  1.00  0.00    +0.074 A 
ATOM      5  N   UNL     1      21.498  -1.877  55.044  1.00  0.00    -0.236 NA
ATOM      6  C   UNL     1      20.389  -1.628  54.338  1.00  0.00    +0.223 A 
ATOM      7  N   UNL     1      20.289  -0.792  53.301  1.00  0.00    -0.236 NA
ATOM      8  C   UNL     1      21.418  -0.140  52.948  1.00  0.00    +0.082 A 
ATOM      9  C   UNL     1      22.649  -0.335  53.599  1.00  0.00    +0.029 A 
ATOM     10  C   UNL     1      23.881   0.281  53.252  1.00  0.00    +0.043 A 
ENDROOT
BRANCH   1  11
ATOM     11  N   UNL     1      26.268   0.642  53.643  1.00  0.00    -0.133 NA
ATOM     12  N   UNL     1      27.201   0.130  54.291  1.00  0.00    -0.072 NA
BRANCH  12  13
ATOM     13  N   UNL     1      28.430   0.678  54.014  1.00  0.00    -0.285 N 
ATOM     14  C   UNL     1      29.567  -0.191  53.735  1.00  0.00    +0.169 C 
ATOM     15  C   UNL     1      28.354   1.916  53.258  1.00  0.00    +0.169 C 
ENDBRANCH  12  13
ENDBRANCH   1  11
BRANCH   8  16
ATOM     16  C   UNL     1      21.224   0.784  51.818  1.00  0.00    +0.008 A 
ATOM     17  C   UNL     1      21.768   0.515  50.551  1.00  0.00    +0.015 A 
ATOM     18  C   UNL     1      20.516   1.985  51.997  1.00  0.00    +0.100 A 
ATOM     19  C   UNL     1      21.594   1.404  49.486  1.00  0.00    +0.054 A 
ATOM     20  C   UNL     1      20.342   2.880  50.927  1.00  0.00    +0.311 A 
ATOM     21  C   UNL     1      20.881   2.587  49.669  1.00  0.00    +0.194 A 
BRANCH  20  22
ATOM     22  N   UNL     1      19.590   4.115  51.156  1.00  0.00    +0.066 N 
ATOM     23  O   UNL     1      18.527   4.026  51.795  1.00  0.00    -0.258 OA
ATOM     24  O   UNL     1      20.051   5.175  50.711  1.00  0.00    -0.258 OA
ENDBRANCH  20  22
BRANCH  21  25
ATOM     25  O   UNL     1      20.776   3.379  48.558  1.00  0.00    -0.502 OA
ATOM     26  H   UNL     1      20.035   4.012  48.667  1.00  0.00    +0.293 HD
ENDBRANCH  21  25
ENDBRANCH   8  16
TORSDOF 5
ENDMDL
MODEL 9
REMARK VINA RESULT:    -7.387      3.922      6.666
REMARK INTER + INTRA:         -10.069
REMARK INTER:                  -8.964
REMARK INTRA:                  -1.105
REMARK UNBOUND:                -0.739
REMARK SMILES CN(C)/N=N/c1ccc2ncnc(-c3ccc(O)c([N+](=O)[O-])c3)c2c1
REMARK SMILES IDX 6 1 7 2 8 3 9 4 10 5 11 6 12 7 13 8 24 9 25 10 5 11 4 12
REMARK SMILES IDX 2 13 1 14 3 15 14 16 15 17 23 18 16 19 19 20 17 21 20 22
REMARK SMILES IDX 21 23 22 24 18 25
REMARK H PARENT 18 26
ROOT
ATOM      1  C   UNL     1      23.378  -0.483  53.778  1.00  0.00    +0.088 A 
ATOM      2  C   UNL     1      22.682  -1.236  54.718  1.00  0.00    +0.032 A 
ATOM      3  C   UNL     1      21.298  -1.402  54.604  1.00  0.00    +0.031 A 
ATOM      4  C   UNL     1      20.571  -0.820  53.573  1.00  0.00    +0.074 A 
ATOM      5  N   UNL     1      19.253  -1.036  53.524  1.00  0.00    -0.236 NA
ATOM      6  C   UNL     1      18.583  -0.472  52.512  1.00  0.00    +0.223 A 
ATOM      7  N   UNL     1      19.107   0.295  51.553  1.00  0.00    -0.236 NA
ATOM      8  C   UNL     1      20.437   0.519  51.628  1.00  0.00    +0.082 A 
ATOM      9  C   UNL     1      21.251  -0.037  52.631  1.00  0.00    +0.029 A 
ATOM     10  C   UNL     1      22.659   0.121  52.742  1.00  0.00    +0.043 A 
ENDROOT
BRANCH   1  11
ATOM     11  N   UNL     1      24.764  -0.305  53.911  1.00  0.00    -0.133 NA
ATOM     12  N   UNL     1      25.227   0.245  52.892  1.00  0.00    -0.072 NA
BRANCH  12  13
ATOM     13  N   UNL     1      26.579   0.477  52.957  1.00  0.00    -0.285 N 
ATOM     14  C   UNL     1      27.076   1.711  53.552  1.00  0.00    +0.169 C 
ATOM     15  C   UNL     1      27.362  -0.723  53.195  1.00  0.00    +0.169 C 
ENDBRANCH  12  13
ENDBRANCH   1  11
BRANCH   8  16
ATOM     16  C   UNL     1      20.938   1.395  50.555  1.00  0.00    +0.008 A 
ATOM     17  C   UNL     1      21.391   0.871  49.332  1.00  0.00    +0.015 A 
ATOM     18  C   UNL     1      21.011   2.785  50.750  1.00  0.00    +0.100 A 
ATOM     19  C   UNL     1      21.880   1.707  48.325  1.00  0.00    +0.054 A 
ATOM     20  C   UNL     1      21.505   3.626  49.738  1.00  0.00    +0.311 A 
ATOM     21  C   UNL     1      21.938   3.085  48.522  1.00  0.00    +0.194 A 
BRANCH  20  22
ATOM     22  N   UNL     1      21.553   5.069  49.981  1.00  0.00    +0.066 N 
ATOM     23  O   UNL     1      21.147   5.815  49.075  1.00  0.00    -0.258 OA
ATOM     24  O   UNL     1      21.988   5.466  51.072  1.00  0.00    -0.258 OA
ENDBRANCH  20  22
BRANCH  21  25
ATOM     25  O   UNL     1      22.435   3.802  47.468  1.00  0.00    -0.502 OA
ATOM     26  H   UNL     1      21.718   3.999  46.829  1.00  0.00    +0.293 HD
ENDBRANCH  21  25
ENDBRANCH   8  16
TORSDOF 5
ENDMDL
