REMARK SMILES Oc1ccc(C/N=N/Nc2ccc3ncnc(-c4ccccc4)c3c2)cc1
REMARK SMILES IDX 7 1 8 2 6 3 5 4 2 5 3 6 27 7 4 8 26 9 1 10 9 12 10 14 11 15
REMARK SMILES IDX 25 16 12 17 24 18 13 19 17 20 14 21 16 22 15 23 18 24 19 25
REMARK SMILES IDX 23 26 20 27 22 28 21 29
REMARK H PARENT 1 11 9 13
ROOT
ATOM      1  N   UNL     1       2.628   0.019  -0.207  1.00  0.00    -0.166 NA
ATOM      2  N   UNL     1       1.896   0.041  -1.212  1.00  0.00    -0.074 NA
ENDROOT
BRANCH   1   3
ATOM      3  C   UNL     1       4.007   0.417  -0.526  1.00  0.00    +0.204 C 
BRANCH   3   4
ATOM      4  C   UNL     1       4.947   0.081   0.606  1.00  0.00    -0.024 A 
ATOM      5  C   UNL     1       6.655  -0.565   2.723  1.00  0.00    +0.115 A 
ATOM      6  C   UNL     1       6.215   0.747   2.571  1.00  0.00    +0.046 A 
ATOM      7  C   UNL     1       6.252  -1.558   1.840  1.00  0.00    +0.046 A 
ATOM      8  C   UNL     1       5.357   1.068   1.515  1.00  0.00    +0.009 A 
ATOM      9  C   UNL     1       5.395  -1.237   0.784  1.00  0.00    +0.009 A 
BRANCH   5  10
ATOM     10  O   UNL     1       7.490  -0.921   3.743  1.00  0.00    -0.508 OA
ATOM     11  H   UNL     1       7.687  -0.132   4.272  1.00  0.00    +0.293 HD
ENDBRANCH   5  10
ENDBRANCH   3   4
ENDBRANCH   1   3
BRANCH   2  12
ATOM     12  N   UNL     1       0.679  -0.339  -0.783  1.00  0.00    -0.260 N 
ATOM     13  H   UNL     1       0.544  -0.283   0.221  1.00  0.00    +0.192 HD
BRANCH  12  14
ATOM     14  C   UNL     1      -0.445  -0.062  -1.579  1.00  0.00    +0.059 A 
ATOM     15  C   UNL     1      -0.353   0.254  -2.936  1.00  0.00    +0.030 A 
ATOM     16  C   UNL     1      -1.726  -0.214  -1.036  1.00  0.00    +0.040 A 
ATOM     17  C   UNL     1      -1.505   0.467  -3.703  1.00  0.00    +0.031 A 
ATOM     18  C   UNL     1      -2.899  -0.007  -1.815  1.00  0.00    +0.029 A 
ATOM     19  C   UNL     1      -2.777   0.351  -3.164  1.00  0.00    +0.074 A 
ATOM     20  C   UNL     1      -4.223  -0.115  -1.352  1.00  0.00    +0.081 A 
ATOM     21  N   UNL     1      -3.829   0.581  -3.957  1.00  0.00    -0.236 NA
ATOM     22  N   UNL     1      -5.298   0.134  -2.133  1.00  0.00    -0.236 NA
ATOM     23  C   UNL     1      -5.040   0.465  -3.401  1.00  0.00    +0.223 A 
BRANCH  20  24
ATOM     24  C   UNL     1      -4.572  -0.504   0.024  1.00  0.00    +0.001 A 
ATOM     25  C   UNL     1      -4.322  -1.805   0.500  1.00  0.00    +0.010 A 
ATOM     26  C   UNL     1      -5.186   0.417   0.891  1.00  0.00    +0.010 A 
ATOM     27  C   UNL     1      -4.654  -2.165   1.808  1.00  0.00    +0.001 A 
ATOM     28  C   UNL     1      -5.518   0.057   2.199  1.00  0.00    +0.001 A 
ATOM     29  C   UNL     1      -5.248  -1.233   2.659  1.00  0.00    +0.000 A 
ENDBRANCH  20  24
ENDBRANCH  12  14
ENDBRANCH   2  12
TORSDOF 6
