MODEL 1
REMARK VINA RESULT:    -8.203      0.000      0.000
REMARK INTER + INTRA:         -10.482
REMARK INTER:                 -10.121
REMARK INTRA:                  -0.362
REMARK UNBOUND:                -0.362
REMARK SMILES O=[N+]([O-])c1cc(-c2cc(O)ccc2[N+](=O)[O-])ccc1O
REMARK SMILES IDX 4 1 5 2 6 3 17 4 18 5 19 6 2 7 1 8 3 9 20 10 7 12 8 13 13 14
REMARK SMILES IDX 9 15 12 16 11 17 14 18 15 19 16 20 10 21
REMARK H PARENT 20 11 10 22
ROOT
ATOM      1  C   UNL     1      23.042  -0.097  53.711  1.00  0.00    +0.311 A 
ATOM      2  C   UNL     1      24.379  -0.488  53.863  1.00  0.00    +0.098 A 
ATOM      3  C   UNL     1      25.346  -0.025  52.958  1.00  0.00    -0.004 A 
ATOM      4  C   UNL     1      24.932   0.823  51.912  1.00  0.00    +0.013 A 
ATOM      5  C   UNL     1      23.593   1.216  51.780  1.00  0.00    +0.054 A 
ATOM      6  C   UNL     1      22.642   0.757  52.686  1.00  0.00    +0.194 A 
ENDROOT
BRANCH   1   7
ATOM      7  N   UNL     1      22.072  -0.614  54.654  1.00  0.00    +0.066 N 
ATOM      8  O   UNL     1      22.242  -1.766  55.075  1.00  0.00    -0.258 OA
ATOM      9  O   UNL     1      21.178   0.162  55.020  1.00  0.00    -0.258 OA
ENDBRANCH   1   7
BRANCH   6  10
ATOM     10  O   UNL     1      21.344   1.160  52.573  1.00  0.00    -0.502 OA
ATOM     11  H   UNL     1      20.795   0.428  52.242  1.00  0.00    +0.293 HD
ENDBRANCH   6  10
BRANCH   3  12
ATOM     12  C   UNL     1      26.755  -0.426  53.095  1.00  0.00    +0.063 A 
ATOM     13  C   UNL     1      27.087  -1.792  53.103  1.00  0.00    +0.062 A 
ATOM     14  C   UNL     1      27.822   0.485  53.206  1.00  0.00    +0.277 A 
ATOM     15  C   UNL     1      28.416  -2.207  53.206  1.00  0.00    +0.116 A 
ATOM     16  C   UNL     1      29.161   0.074  53.306  1.00  0.00    +0.090 A 
ATOM     17  C   UNL     1      29.456  -1.288  53.306  1.00  0.00    +0.053 A 
BRANCH  14  18
ATOM     18  N   UNL     1      27.566   1.913  53.235  1.00  0.00    +0.063 N 
ATOM     19  O   UNL     1      27.806   2.543  52.196  1.00  0.00    -0.258 OA
ATOM     20  O   UNL     1      27.149   2.394  54.296  1.00  0.00    -0.258 OA
ENDBRANCH  14  18
BRANCH  15  21
ATOM     21  O   UNL     1      28.655  -3.549  53.203  1.00  0.00    -0.508 OA
ATOM     22  H   UNL     1      29.559  -3.716  53.518  1.00  0.00    +0.293 HD
ENDBRANCH  15  21
ENDBRANCH   3  12
TORSDOF 5
ENDMDL
MODEL 2
REMARK VINA RESULT:    -7.880      2.086      5.672
REMARK INTER + INTRA:         -10.084
REMARK INTER:                  -9.241
REMARK INTRA:                  -0.843
REMARK UNBOUND:                -0.362
REMARK SMILES O=[N+]([O-])c1cc(-c2cc(O)ccc2[N+](=O)[O-])ccc1O
REMARK SMILES IDX 4 1 5 2 6 3 17 4 18 5 19 6 2 7 1 8 3 9 20 10 7 12 8 13 13 14
REMARK SMILES IDX 9 15 12 16 11 17 14 18 15 19 16 20 10 21
REMARK H PARENT 20 11 10 22
ROOT
ATOM      1  C   UNL     1      27.401  -0.023  54.407  1.00  0.00    +0.311 A 
ATOM      2  C   UNL     1      26.020   0.205  54.466  1.00  0.00    +0.098 A 
ATOM      3  C   UNL     1      25.186  -0.316  53.465  1.00  0.00    -0.004 A 
ATOM      4  C   UNL     1      25.775  -1.055  52.421  1.00  0.00    +0.013 A 
ATOM      5  C   UNL     1      27.157  -1.286  52.381  1.00  0.00    +0.054 A 
ATOM      6  C   UNL     1      27.976  -0.770  53.382  1.00  0.00    +0.194 A 
ENDROOT
BRANCH   1   7
ATOM      7  N   UNL     1      28.229   0.550  55.447  1.00  0.00    +0.066 N 
ATOM      8  O   UNL     1      29.115   1.344  55.101  1.00  0.00    -0.258 OA
ATOM      9  O   UNL     1      27.946   0.253  56.617  1.00  0.00    -0.258 OA
ENDBRANCH   1   7
BRANCH   6  10
ATOM     10  O   UNL     1      29.317  -1.017  53.358  1.00  0.00    -0.502 OA
ATOM     11  H   UNL     1      29.802  -0.201  53.150  1.00  0.00    +0.293 HD
ENDBRANCH   6  10
BRANCH   3  12
ATOM     12  C   UNL     1      23.733  -0.085  53.504  1.00  0.00    +0.063 A 
ATOM     13  C   UNL     1      22.904  -1.005  54.169  1.00  0.00    +0.062 A 
ATOM     14  C   UNL     1      23.102   1.030  52.921  1.00  0.00    +0.277 A 
ATOM     15  C   UNL     1      21.525  -0.803  54.245  1.00  0.00    +0.116 A 
ATOM     16  C   UNL     1      21.715   1.241  53.000  1.00  0.00    +0.090 A 
ATOM     17  C   UNL     1      20.923   0.311  53.670  1.00  0.00    +0.053 A 
BRANCH  14  18
ATOM     18  N   UNL     1      23.879   2.015  52.192  1.00  0.00    +0.063 N 
ATOM     19  O   UNL     1      24.321   2.969  52.845  1.00  0.00    -0.258 OA
ATOM     20  O   UNL     1      24.022   1.837  50.976  1.00  0.00    -0.258 OA
ENDBRANCH  14  18
BRANCH  15  21
ATOM     21  O   UNL     1      20.791  -1.739  54.911  1.00  0.00    -0.508 OA
ATOM     22  H   UNL     1      20.657  -1.452  55.829  1.00  0.00    +0.293 HD
ENDBRANCH  15  21
ENDBRANCH   3  12
TORSDOF 5
ENDMDL
MODEL 3
REMARK VINA RESULT:    -7.800      1.589      2.514
REMARK INTER + INTRA:          -9.985
REMARK INTER:                  -9.541
REMARK INTRA:                  -0.445
REMARK UNBOUND:                -0.362
REMARK SMILES O=[N+]([O-])c1cc(-c2cc(O)ccc2[N+](=O)[O-])ccc1O
REMARK SMILES IDX 4 1 5 2 6 3 17 4 18 5 19 6 2 7 1 8 3 9 20 10 7 12 8 13 13 14
REMARK SMILES IDX 9 15 12 16 11 17 14 18 15 19 16 20 10 21
REMARK H PARENT 20 11 10 22
ROOT
ATOM      1  C   UNL     1      23.753   1.256  51.727  1.00  0.00    +0.311 A 
ATOM      2  C   UNL     1      25.085   0.850  51.876  1.00  0.00    +0.098 A 
ATOM      3  C   UNL     1      25.428  -0.049  52.896  1.00  0.00    -0.004 A 
ATOM      4  C   UNL     1      24.408  -0.513  53.750  1.00  0.00    +0.013 A 
ATOM      5  C   UNL     1      23.077  -0.108  53.581  1.00  0.00    +0.054 A 
ATOM      6  C   UNL     1      22.745   0.780  52.562  1.00  0.00    +0.194 A 
ENDROOT
BRANCH   1   7
ATOM      7  N   UNL     1      23.443   2.202  50.674  1.00  0.00    +0.066 N 
ATOM      8  O   UNL     1      22.572   1.880  49.854  1.00  0.00    -0.258 OA
ATOM      9  O   UNL     1      24.029   3.294  50.712  1.00  0.00    -0.258 OA
ENDBRANCH   1   7
BRANCH   6  10
ATOM     10  O   UNL     1      21.446   1.153  52.381  1.00  0.00    -0.502 OA
ATOM     11  H   UNL     1      21.397   1.901  51.761  1.00  0.00    +0.293 HD
ENDBRANCH   6  10
BRANCH   3  12
ATOM     12  C   UNL     1      26.822  -0.485  53.074  1.00  0.00    +0.063 A 
ATOM     13  C   UNL     1      27.128  -1.856  53.032  1.00  0.00    +0.062 A 
ATOM     14  C   UNL     1      27.900   0.398  53.273  1.00  0.00    +0.277 A 
ATOM     15  C   UNL     1      28.443  -2.303  53.173  1.00  0.00    +0.116 A 
ATOM     16  C   UNL     1      29.226  -0.045  53.410  1.00  0.00    +0.090 A 
ATOM     17  C   UNL     1      29.494  -1.411  53.359  1.00  0.00    +0.053 A 
BRANCH  14  18
ATOM     18  N   UNL     1      27.670   1.828  53.358  1.00  0.00    +0.063 N 
ATOM     19  O   UNL     1      28.046   2.510  52.395  1.00  0.00    -0.258 OA
ATOM     20  O   UNL     1      27.137   2.257  54.388  1.00  0.00    -0.258 OA
ENDBRANCH  14  18
BRANCH  15  21
ATOM     21  O   UNL     1      28.657  -3.648  53.116  1.00  0.00    -0.508 OA
ATOM     22  H   UNL     1      29.490  -3.823  52.648  1.00  0.00    +0.293 HD
ENDBRANCH  15  21
ENDBRANCH   3  12
TORSDOF 5
ENDMDL
MODEL 4
REMARK VINA RESULT:    -7.749      2.989      3.709
REMARK INTER + INTRA:          -9.923
REMARK INTER:                  -9.569
REMARK INTRA:                  -0.353
REMARK UNBOUND:                -0.362
REMARK SMILES O=[N+]([O-])c1cc(-c2cc(O)ccc2[N+](=O)[O-])ccc1O
REMARK SMILES IDX 4 1 5 2 6 3 17 4 18 5 19 6 2 7 1 8 3 9 20 10 7 12 8 13 13 14
REMARK SMILES IDX 9 15 12 16 11 17 14 18 15 19 16 20 10 21
REMARK H PARENT 20 11 10 22
ROOT
ATOM      1  C   UNL     1      25.449   2.650  51.130  1.00  0.00    +0.311 A 
ATOM      2  C   UNL     1      26.491   1.760  51.422  1.00  0.00    +0.098 A 
ATOM      3  C   UNL     1      26.567   1.172  52.693  1.00  0.00    -0.004 A 
ATOM      4  C   UNL     1      25.585   1.506  53.645  1.00  0.00    +0.013 A 
ATOM      5  C   UNL     1      24.541   2.388  53.336  1.00  0.00    +0.054 A 
ATOM      6  C   UNL     1      24.469   2.962  52.069  1.00  0.00    +0.194 A 
ENDROOT
BRANCH   1   7
ATOM      7  N   UNL     1      25.418   3.252  49.813  1.00  0.00    +0.066 N 
ATOM      8  O   UNL     1      26.480   3.710  49.368  1.00  0.00    -0.258 OA
ATOM      9  O   UNL     1      24.341   3.205  49.201  1.00  0.00    -0.258 OA
ENDBRANCH   1   7
BRANCH   6  10
ATOM     10  O   UNL     1      23.439   3.800  51.759  1.00  0.00    -0.502 OA
ATOM     11  H   UNL     1      22.883   3.403  51.068  1.00  0.00    +0.293 HD
ENDBRANCH   6  10
BRANCH   3  12
ATOM     12  C   UNL     1      27.655   0.238  53.023  1.00  0.00    +0.063 A 
ATOM     13  C   UNL     1      27.488  -1.135  52.771  1.00  0.00    +0.062 A 
ATOM     14  C   UNL     1      28.889   0.635  53.571  1.00  0.00    +0.277 A 
ATOM     15  C   UNL     1      28.510  -2.045  53.050  1.00  0.00    +0.116 A 
ATOM     16  C   UNL     1      29.923  -0.276  53.848  1.00  0.00    +0.090 A 
ATOM     17  C   UNL     1      29.725  -1.629  53.583  1.00  0.00    +0.053 A 
BRANCH  14  18
ATOM     18  N   UNL     1      29.136   2.029  53.887  1.00  0.00    +0.063 N 
ATOM     19  O   UNL     1      29.397   2.295  55.068  1.00  0.00    -0.258 OA
ATOM     20  O   UNL     1      29.048   2.845  52.961  1.00  0.00    -0.258 OA
ENDBRANCH  14  18
BRANCH  15  21
ATOM     21  O   UNL     1      28.271  -3.359  52.774  1.00  0.00    -0.508 OA
ATOM     22  H   UNL     1      28.575  -3.905  53.517  1.00  0.00    +0.293 HD
ENDBRANCH  15  21
ENDBRANCH   3  12
TORSDOF 5
ENDMDL
MODEL 5
REMARK VINA RESULT:    -7.301      1.573      2.131
REMARK INTER + INTRA:          -9.370
REMARK INTER:                  -8.866
REMARK INTRA:                  -0.504
REMARK UNBOUND:                -0.362
REMARK SMILES O=[N+]([O-])c1cc(-c2cc(O)ccc2[N+](=O)[O-])ccc1O
REMARK SMILES IDX 4 1 5 2 6 3 17 4 18 5 19 6 2 7 1 8 3 9 20 10 7 12 8 13 13 14
REMARK SMILES IDX 9 15 12 16 11 17 14 18 15 19 16 20 10 21
REMARK H PARENT 20 11 10 22
ROOT
ATOM      1  C   UNL     1      23.866   1.562  51.933  1.00  0.00    +0.311 A 
ATOM      2  C   UNL     1      24.897   0.821  52.523  1.00  0.00    +0.098 A 
ATOM      3  C   UNL     1      26.223   1.026  52.113  1.00  0.00    -0.004 A 
ATOM      4  C   UNL     1      26.472   1.977  51.105  1.00  0.00    +0.013 A 
ATOM      5  C   UNL     1      25.432   2.721  50.531  1.00  0.00    +0.054 A 
ATOM      6  C   UNL     1      24.120   2.516  50.949  1.00  0.00    +0.194 A 
ENDROOT
BRANCH   1   7
ATOM      7  N   UNL     1      22.509   1.306  52.369  1.00  0.00    +0.066 N 
ATOM      8  O   UNL     1      22.169   0.124  52.517  1.00  0.00    -0.258 OA
ATOM      9  O   UNL     1      21.807   2.295  52.627  1.00  0.00    -0.258 OA
ENDBRANCH   1   7
BRANCH   6  10
ATOM     10  O   UNL     1      23.110   3.258  50.411  1.00  0.00    -0.502 OA
ATOM     11  H   UNL     1      23.477   3.965  49.853  1.00  0.00    +0.293 HD
ENDBRANCH   6  10
BRANCH   3  12
ATOM     12  C   UNL     1      27.322   0.255  52.715  1.00  0.00    +0.063 A 
ATOM     13  C   UNL     1      27.344  -1.143  52.575  1.00  0.00    +0.062 A 
ATOM     14  C   UNL     1      28.389   0.836  53.426  1.00  0.00    +0.277 A 
ATOM     15  C   UNL     1      28.384  -1.903  53.114  1.00  0.00    +0.116 A 
ATOM     16  C   UNL     1      29.442   0.078  53.965  1.00  0.00    +0.090 A 
ATOM     17  C   UNL     1      29.434  -1.306  53.805  1.00  0.00    +0.053 A 
BRANCH  14  18
ATOM     18  N   UNL     1      28.432   2.270  53.641  1.00  0.00    +0.063 N 
ATOM     19  O   UNL     1      27.608   2.739  54.439  1.00  0.00    -0.258 OA
ATOM     20  O   UNL     1      29.270   2.916  52.999  1.00  0.00    -0.258 OA
ENDBRANCH  14  18
BRANCH  15  21
ATOM     21  O   UNL     1      28.334  -3.253  52.932  1.00  0.00    -0.508 OA
ATOM     22  H   UNL     1      27.712  -3.458  52.214  1.00  0.00    +0.293 HD
ENDBRANCH  15  21
ENDBRANCH   3  12
TORSDOF 5
ENDMDL
MODEL 6
REMARK VINA RESULT:    -7.178      2.539      6.038
REMARK INTER + INTRA:          -9.218
REMARK INTER:                  -8.403
REMARK INTRA:                  -0.815
REMARK UNBOUND:                -0.362
REMARK SMILES O=[N+]([O-])c1cc(-c2cc(O)ccc2[N+](=O)[O-])ccc1O
REMARK SMILES IDX 4 1 5 2 6 3 17 4 18 5 19 6 2 7 1 8 3 9 20 10 7 12 8 13 13 14
REMARK SMILES IDX 9 15 12 16 11 17 14 18 15 19 16 20 10 21
REMARK H PARENT 20 11 10 22
ROOT
ATOM      1  C   UNL     1      26.531   0.192  54.509  1.00  0.00    +0.311 A 
ATOM      2  C   UNL     1      25.521   1.139  54.295  1.00  0.00    +0.098 A 
ATOM      3  C   UNL     1      25.068   1.389  52.991  1.00  0.00    -0.004 A 
ATOM      4  C   UNL     1      25.656   0.675  51.929  1.00  0.00    +0.013 A 
ATOM      5  C   UNL     1      26.657  -0.279  52.159  1.00  0.00    +0.054 A 
ATOM      6  C   UNL     1      27.096  -0.525  53.457  1.00  0.00    +0.194 A 
ENDROOT
BRANCH   1   7
ATOM      7  N   UNL     1      26.985  -0.021  55.867  1.00  0.00    +0.066 N 
ATOM      8  O   UNL     1      28.138   0.335  56.148  1.00  0.00    -0.258 OA
ATOM      9  O   UNL     1      26.161  -0.486  56.667  1.00  0.00    -0.258 OA
ENDBRANCH   1   7
BRANCH   6  10
ATOM     10  O   UNL     1      28.052  -1.472  53.685  1.00  0.00    -0.502 OA
ATOM     11  H   UNL     1      27.886  -1.915  54.534  1.00  0.00    +0.293 HD
ENDBRANCH   6  10
BRANCH   3  12
ATOM     12  C   UNL     1      24.012   2.383  52.741  1.00  0.00    +0.063 A 
ATOM     13  C   UNL     1      24.356   3.739  52.604  1.00  0.00    +0.062 A 
ATOM     14  C   UNL     1      22.648   2.061  52.612  1.00  0.00    +0.277 A 
ATOM     15  C   UNL     1      23.382   4.704  52.343  1.00  0.00    +0.116 A 
ATOM     16  C   UNL     1      21.664   3.027  52.343  1.00  0.00    +0.090 A 
ATOM     17  C   UNL     1      22.040   4.361  52.209  1.00  0.00    +0.053 A 
BRANCH  14  18
ATOM     18  N   UNL     1      22.201   0.689  52.766  1.00  0.00    +0.063 N 
ATOM     19  O   UNL     1      22.046   0.033  51.727  1.00  0.00    -0.258 OA
ATOM     20  O   UNL     1      21.990   0.288  53.917  1.00  0.00    -0.258 OA
ENDBRANCH  14  18
BRANCH  15  21
ATOM     21  O   UNL     1      23.798   5.996  52.220  1.00  0.00    -0.508 OA
ATOM     22  H   UNL     1      24.593   6.027  51.662  1.00  0.00    +0.293 HD
ENDBRANCH  15  21
ENDBRANCH   3  12
TORSDOF 5
ENDMDL
MODEL 7
REMARK VINA RESULT:    -7.109      2.061      5.706
REMARK INTER + INTRA:          -9.133
REMARK INTER:                  -8.980
REMARK INTRA:                  -0.152
REMARK UNBOUND:                -0.362
REMARK SMILES O=[N+]([O-])c1cc(-c2cc(O)ccc2[N+](=O)[O-])ccc1O
REMARK SMILES IDX 4 1 5 2 6 3 17 4 18 5 19 6 2 7 1 8 3 9 20 10 7 12 8 13 13 14
REMARK SMILES IDX 9 15 12 16 11 17 14 18 15 19 16 20 10 21
REMARK H PARENT 20 11 10 22
ROOT
ATOM      1  C   UNL     1      27.151  -0.729  53.259  1.00  0.00    +0.311 A 
ATOM      2  C   UNL     1      25.752  -0.797  53.220  1.00  0.00    +0.098 A 
ATOM      3  C   UNL     1      24.992   0.349  53.495  1.00  0.00    -0.004 A 
ATOM      4  C   UNL     1      25.670   1.542  53.810  1.00  0.00    +0.013 A 
ATOM      5  C   UNL     1      27.070   1.600  53.833  1.00  0.00    +0.054 A 
ATOM      6  C   UNL     1      27.817   0.459  53.553  1.00  0.00    +0.194 A 
ENDROOT
BRANCH   1   7
ATOM      7  N   UNL     1      27.898  -1.939  52.990  1.00  0.00    +0.066 N 
ATOM      8  O   UNL     1      27.409  -2.748  52.189  1.00  0.00    -0.258 OA
ATOM      9  O   UNL     1      29.008  -2.045  53.533  1.00  0.00    -0.258 OA
ENDBRANCH   1   7
BRANCH   6  10
ATOM     10  O   UNL     1      29.179   0.520  53.550  1.00  0.00    -0.502 OA
ATOM     11  H   UNL     1      29.552  -0.318  53.873  1.00  0.00    +0.293 HD
ENDBRANCH   6  10
BRANCH   3  12
ATOM     12  C   UNL     1      23.521   0.299  53.464  1.00  0.00    +0.063 A 
ATOM     13  C   UNL     1      22.847  -0.678  54.217  1.00  0.00    +0.062 A 
ATOM     14  C   UNL     1      22.722   1.194  52.728  1.00  0.00    +0.277 A 
ATOM     15  C   UNL     1      21.452  -0.738  54.230  1.00  0.00    +0.116 A 
ATOM     16  C   UNL     1      21.318   1.142  52.742  1.00  0.00    +0.090 A 
ATOM     17  C   UNL     1      20.682   0.163  53.501  1.00  0.00    +0.053 A 
BRANCH  14  18
ATOM     18  N   UNL     1      23.336   2.216  51.902  1.00  0.00    +0.063 N 
ATOM     19  O   UNL     1      23.802   1.849  50.815  1.00  0.00    -0.258 OA
ATOM     20  O   UNL     1      23.366   3.368  52.353  1.00  0.00    -0.258 OA
ENDBRANCH  14  18
BRANCH  15  21
ATOM     21  O   UNL     1      20.874  -1.712  54.988  1.00  0.00    -0.508 OA
ATOM     22  H   UNL     1      20.810  -2.530  54.467  1.00  0.00    +0.293 HD
ENDBRANCH  15  21
ENDBRANCH   3  12
TORSDOF 5
ENDMDL
MODEL 8
REMARK VINA RESULT:    -6.996      2.440      6.511
REMARK INTER + INTRA:          -8.993
REMARK INTER:                  -8.392
REMARK INTRA:                  -0.602
REMARK UNBOUND:                -0.362
REMARK SMILES O=[N+]([O-])c1cc(-c2cc(O)ccc2[N+](=O)[O-])ccc1O
REMARK SMILES IDX 4 1 5 2 6 3 17 4 18 5 19 6 2 7 1 8 3 9 20 10 7 12 8 13 13 14
REMARK SMILES IDX 9 15 12 16 11 17 14 18 15 19 16 20 10 21
REMARK H PARENT 20 11 10 22
ROOT
ATOM      1  C   UNL     1      25.154   0.622  53.391  1.00  0.00    +0.311 A 
ATOM      2  C   UNL     1      23.891   0.260  52.904  1.00  0.00    +0.098 A 
ATOM      3  C   UNL     1      22.947   1.256  52.614  1.00  0.00    -0.004 A 
ATOM      4  C   UNL     1      23.304   2.601  52.831  1.00  0.00    +0.013 A 
ATOM      5  C   UNL     1      24.576   2.949  53.307  1.00  0.00    +0.054 A 
ATOM      6  C   UNL     1      25.509   1.955  53.586  1.00  0.00    +0.194 A 
ENDROOT
BRANCH   1   7
ATOM      7  N   UNL     1      26.093  -0.437  53.698  1.00  0.00    +0.066 N 
ATOM      8  O   UNL     1      26.439  -1.181  52.770  1.00  0.00    -0.258 OA
ATOM      9  O   UNL     1      26.533  -0.478  54.856  1.00  0.00    -0.258 OA
ENDBRANCH   1   7
BRANCH   6  10
ATOM     10  O   UNL     1      26.755   2.294  54.024  1.00  0.00    -0.502 OA
ATOM     11  H   UNL     1      26.715   2.583  54.952  1.00  0.00    +0.293 HD
ENDBRANCH   6  10
BRANCH   3  12
ATOM     12  C   UNL     1      21.613   0.899  52.106  1.00  0.00    +0.063 A 
ATOM     13  C   UNL     1      21.239   1.291  50.809  1.00  0.00    +0.062 A 
ATOM     14  C   UNL     1      20.667   0.160  52.841  1.00  0.00    +0.277 A 
ATOM     15  C   UNL     1      19.990   0.948  50.287  1.00  0.00    +0.116 A 
ATOM     16  C   UNL     1      19.411  -0.192  52.319  1.00  0.00    +0.090 A 
ATOM     17  C   UNL     1      19.074   0.209  51.029  1.00  0.00    +0.053 A 
BRANCH  14  18
ATOM     18  N   UNL     1      20.959  -0.261  54.198  1.00  0.00    +0.063 N 
ATOM     19  O   UNL     1      21.338  -1.430  54.349  1.00  0.00    -0.258 OA
ATOM     20  O   UNL     1      20.789   0.570  55.099  1.00  0.00    -0.258 OA
ENDBRANCH  14  18
BRANCH  15  21
ATOM     21  O   UNL     1      19.706   1.363  49.020  1.00  0.00    -0.508 OA
ATOM     22  H   UNL     1      19.328   2.258  49.051  1.00  0.00    +0.293 HD
ENDBRANCH  15  21
ENDBRANCH   3  12
TORSDOF 5
ENDMDL
MODEL 9
REMARK VINA RESULT:    -6.974      3.055      5.360
REMARK INTER + INTRA:          -8.966
REMARK INTER:                  -8.770
REMARK INTRA:                  -0.196
REMARK UNBOUND:                -0.362
REMARK SMILES O=[N+]([O-])c1cc(-c2cc(O)ccc2[N+](=O)[O-])ccc1O
REMARK SMILES IDX 4 1 5 2 6 3 17 4 18 5 19 6 2 7 1 8 3 9 20 10 7 12 8 13 13 14
REMARK SMILES IDX 9 15 12 16 11 17 14 18 15 19 16 20 10 21
REMARK H PARENT 20 11 10 22
ROOT
ATOM      1  C   UNL     1      24.187  -0.587  54.136  1.00  0.00    +0.311 A 
ATOM      2  C   UNL     1      24.109   0.194  52.976  1.00  0.00    +0.098 A 
ATOM      3  C   UNL     1      22.855   0.584  52.483  1.00  0.00    -0.004 A 
ATOM      4  C   UNL     1      21.704   0.167  53.177  1.00  0.00    +0.013 A 
ATOM      5  C   UNL     1      21.796  -0.604  54.345  1.00  0.00    +0.054 A 
ATOM      6  C   UNL     1      23.045  -0.981  54.830  1.00  0.00    +0.194 A 
ENDROOT
BRANCH   1   7
ATOM      7  N   UNL     1      25.499  -0.986  54.601  1.00  0.00    +0.066 N 
ATOM      8  O   UNL     1      26.311  -1.381  53.752  1.00  0.00    -0.258 OA
ATOM      9  O   UNL     1      25.735  -0.839  55.808  1.00  0.00    -0.258 OA
ENDBRANCH   1   7
BRANCH   6  10
ATOM     10  O   UNL     1      23.137  -1.708  55.980  1.00  0.00    -0.502 OA
ATOM     11  H   UNL     1      23.021  -1.128  56.752  1.00  0.00    +0.293 HD
ENDBRANCH   6  10
BRANCH   3  12
ATOM     12  C   UNL     1      22.750   1.400  51.263  1.00  0.00    +0.063 A 
ATOM     13  C   UNL     1      21.864   1.009  50.244  1.00  0.00    +0.062 A 
ATOM     14  C   UNL     1      23.481   2.584  51.046  1.00  0.00    +0.277 A 
ATOM     15  C   UNL     1      21.721   1.774  49.084  1.00  0.00    +0.116 A 
ATOM     16  C   UNL     1      23.337   3.359  49.884  1.00  0.00    +0.090 A 
ATOM     17  C   UNL     1      22.447   2.945  48.895  1.00  0.00    +0.053 A 
BRANCH  14  18
ATOM     18  N   UNL     1      24.438   3.045  52.034  1.00  0.00    +0.063 N 
ATOM     19  O   UNL     1      25.628   2.772  51.827  1.00  0.00    -0.258 OA
ATOM     20  O   UNL     1      23.993   3.658  53.012  1.00  0.00    -0.258 OA
ENDBRANCH  14  18
BRANCH  15  21
ATOM     21  O   UNL     1      20.839   1.329  48.146  1.00  0.00    -0.508 OA
ATOM     22  H   UNL     1      19.942   1.620  48.381  1.00  0.00    +0.293 HD
ENDBRANCH  15  21
ENDBRANCH   3  12
TORSDOF 5
ENDMDL
