REMARK SMILES Cc1cccc(C=C(C#N)C(N)=C(C#N)C(N)=C(C#N)C#N)c1
REMARK SMILES IDX 11 1 13 2 14 3 15 4 8 5 7 6 9 7 10 8 6 9 2 10 3 11 23 12
REMARK SMILES IDX 4 13 5 14 1 15 12 16 16 19 18 20 19 21 21 22 20 23 22 24
REMARK SMILES IDX 17 25
REMARK H PARENT 12 17 12 18 17 26 17 27
ROOT
ATOM      1  C   UNL     1       1.890  -1.111  -1.042  1.00  0.00    +0.070 C 
ATOM      2  C   UNL     1       2.535  -0.186  -1.810  1.00  0.00    +0.101 C 
ATOM      3  C   UNL     1       3.438  -0.612  -2.841  1.00  0.00    +0.104 C 
ATOM      4  N   UNL     1       4.180  -0.968  -3.659  1.00  0.00    -0.192 NA
ENDROOT
BRANCH   1   5
ATOM      5  C   UNL     1       0.902  -0.724  -0.009  1.00  0.00    +0.077 C 
ATOM      6  C   UNL     1      -0.343  -1.244  -0.041  1.00  0.00    +0.029 C 
ATOM      7  C   UNL     1       1.309   0.203   1.004  1.00  0.00    +0.101 C 
ATOM      8  N   UNL     1       1.684   0.983   1.776  1.00  0.00    -0.192 NA
BRANCH   6   9
ATOM      9  C   UNL     1      -1.433  -0.957   0.899  1.00  0.00    -0.024 A 
ATOM     10  C   UNL     1      -3.708  -0.161   1.266  1.00  0.00    -0.051 A 
ATOM     11  C   UNL     1      -3.571  -0.434   2.631  1.00  0.00    +0.003 A 
ATOM     12  C   UNL     1      -2.639  -0.442   0.403  1.00  0.00    +0.011 A 
ATOM     13  C   UNL     1      -2.380  -0.960   3.129  1.00  0.00    +0.001 A 
ATOM     14  C   UNL     1      -1.315  -1.224   2.267  1.00  0.00    +0.008 A 
ATOM     15  C   UNL     1      -5.004   0.367   0.724  1.00  0.00    +0.044 C 
ENDBRANCH   6   9
ENDBRANCH   1   5
BRANCH   1  16
ATOM     16  N   UNL     1       2.061  -2.489  -1.191  1.00  0.00    -0.397 N 
ATOM     17  H   UNL     1       1.916  -3.023  -0.334  1.00  0.00    +0.156 HD
ATOM     18  H   UNL     1       2.916  -2.781  -1.667  1.00  0.00    +0.156 HD
ENDBRANCH   1  16
BRANCH   2  19
ATOM     19  C   UNL     1       2.351   1.281  -1.706  1.00  0.00    +0.081 C 
ATOM     20  C   UNL     1       3.284   2.057  -1.088  1.00  0.00    +0.153 C 
ATOM     21  C   UNL     1       4.457   1.502  -0.496  1.00  0.00    +0.113 C 
ATOM     22  C   UNL     1       3.115   3.468  -1.001  1.00  0.00    +0.113 C 
ATOM     23  N   UNL     1       5.397   1.005  -0.032  1.00  0.00    -0.192 NA
ATOM     24  N   UNL     1       2.942   4.614  -0.949  1.00  0.00    -0.192 NA
BRANCH  19  25
ATOM     25  N   UNL     1       1.184   1.765  -2.290  1.00  0.00    -0.396 N 
ATOM     26  H   UNL     1       0.867   2.690  -1.995  1.00  0.00    +0.156 HD
ATOM     27  H   UNL     1       0.417   1.101  -2.389  1.00  0.00    +0.156 HD
ENDBRANCH  19  25
ENDBRANCH   2  19
TORSDOF 5
