REMARK SMILES N#CC(C#N)=C(N)C(C#N)=C1C(=O)Nc2ncnc(-c3ccc(O)cc3)c21
REMARK SMILES IDX 8 1 9 2 10 3 11 4 12 5 13 6 14 7 15 8 16 9 17 10 18 11 19 12
REMARK SMILES IDX 27 13 6 15 1 16 2 17 3 18 4 19 5 20 7 21 20 24 21 25 26 26
REMARK SMILES IDX 22 27 25 28 23 29 24 30
REMARK H PARENT 14 14 7 22 7 23 24 31
ROOT
ATOM      1  C   UNL     1       1.538  -0.147  -0.490  1.00  0.00    +0.091 C 
ATOM      2  C   UNL     1       0.720  -0.802  -1.464  1.00  0.00    +0.102 C 
ATOM      3  N   UNL     1       0.107  -1.336  -2.291  1.00  0.00    -0.192 NA
ATOM      4  C   UNL     1       1.135   0.964   0.164  1.00  0.00    +0.073 C 
ATOM      5  C   UNL     1       2.127   1.825   0.911  1.00  0.00    +0.259 C 
ATOM      6  O   UNL     1       3.253   1.533   1.257  1.00  0.00    -0.269 OA
ATOM      7  N   UNL     1       1.489   3.028   1.090  1.00  0.00    -0.306 N 
ATOM      8  C   UNL     1       0.170   2.976   0.665  1.00  0.00    +0.145 A 
ATOM      9  N   UNL     1      -0.665   4.001   0.821  1.00  0.00    -0.218 NA
ATOM     10  C   UNL     1      -1.921   3.713   0.468  1.00  0.00    +0.224 A 
ATOM     11  N   UNL     1      -2.368   2.512   0.057  1.00  0.00    -0.236 NA
ATOM     12  C   UNL     1      -1.471   1.495  -0.042  1.00  0.00    +0.084 A 
ATOM     13  C   UNL     1      -0.131   1.716   0.169  1.00  0.00    +0.058 A 
ATOM     14  H   UNL     1       1.882   3.826   1.565  1.00  0.00    +0.171 HD
ENDROOT
BRANCH   1  15
ATOM     15  C   UNL     1       2.888  -0.741  -0.340  1.00  0.00    +0.079 C 
ATOM     16  N   UNL     1       5.510  -2.591   1.002  1.00  0.00    -0.192 NA
ATOM     17  C   UNL     1       4.451  -2.133   0.882  1.00  0.00    +0.113 C 
ATOM     18  C   UNL     1       3.161  -1.556   0.716  1.00  0.00    +0.153 C 
ATOM     19  C   UNL     1       2.172  -1.864   1.696  1.00  0.00    +0.113 C 
ATOM     20  N   UNL     1       1.324  -2.074   2.459  1.00  0.00    -0.192 NA
BRANCH  15  21
ATOM     21  N   UNL     1       3.797  -0.397  -1.338  1.00  0.00    -0.396 N 
ATOM     22  H   UNL     1       3.658   0.530  -1.741  1.00  0.00    +0.156 HD
ATOM     23  H   UNL     1       4.782  -0.534  -1.099  1.00  0.00    +0.156 HD
ENDBRANCH  15  21
ENDBRANCH   1  15
BRANCH  12  24
ATOM     24  C   UNL     1      -2.091   0.179  -0.237  1.00  0.00    +0.001 A 
ATOM     25  C   UNL     1      -2.966  -0.051  -1.312  1.00  0.00    +0.014 A 
ATOM     26  C   UNL     1      -1.881  -0.869   0.681  1.00  0.00    +0.014 A 
ATOM     27  C   UNL     1      -3.581  -1.294  -1.485  1.00  0.00    +0.047 A 
ATOM     28  C   UNL     1      -2.494  -2.114   0.509  1.00  0.00    +0.047 A 
ATOM     29  C   UNL     1      -3.338  -2.315  -0.577  1.00  0.00    +0.115 A 
BRANCH  29  30
ATOM     30  O   UNL     1      -3.961  -3.510  -0.781  1.00  0.00    -0.508 OA
ATOM     31  H   UNL     1      -3.661  -4.136  -0.102  1.00  0.00    +0.293 HD
ENDBRANCH  29  30
ENDBRANCH  12  24
TORSDOF 4
