MODEL 1
REMARK VINA RESULT:    -7.829      0.000      0.000
REMARK INTER + INTRA:         -10.372
REMARK INTER:                  -9.889
REMARK INTRA:                  -0.483
REMARK UNBOUND:                -0.483
REMARK SMILES Cc1cc(C)c(C=Cc2cc(C(=O)O)cc(O)c2O)[nH]1
REMARK SMILES IDX 9 1 10 2 11 3 15 4 16 5 18 6 8 7 7 8 6 9 2 10 3 11 20 12
REMARK SMILES IDX 4 13 1 14 5 16 19 17 12 19 13 20 14 21 17 23
REMARK H PARENT 20 15 19 18 14 22 17 24
ROOT
ATOM      1  C   UNL     1      26.493   0.496  53.239  1.00  0.00    +0.021 A 
ATOM      2  C   UNL     1      27.088  -0.772  53.135  1.00  0.00    +0.028 A 
ATOM      3  C   UNL     1      28.438  -0.960  53.476  1.00  0.00    +0.064 A 
ATOM      4  C   UNL     1      29.202   0.122  53.928  1.00  0.00    +0.065 A 
ATOM      5  C   UNL     1      28.612   1.372  54.028  1.00  0.00    +0.158 A 
ATOM      6  C   UNL     1      27.274   1.569  53.684  1.00  0.00    +0.164 A 
ENDROOT
BRANCH   1   7
ATOM      7  C   UNL     1      25.079   0.663  52.890  1.00  0.00    +0.014 C 
ATOM      8  C   UNL     1      24.152  -0.223  53.274  1.00  0.00    +0.027 C 
BRANCH   8   9
ATOM      9  C   UNL     1      22.787  -0.065  52.927  1.00  0.00    +0.041 A 
ATOM     10  C   UNL     1      21.165   0.720  51.565  1.00  0.00    +0.012 A 
ATOM     11  C   UNL     1      20.555   0.023  52.585  1.00  0.00    +0.026 A 
ATOM     12  N   UNL     1      22.517   0.680  51.797  1.00  0.00    -0.359 N 
ATOM     13  C   UNL     1      21.570  -0.469  53.457  1.00  0.00    -0.026 A 
ATOM     14  C   UNL     1      20.585   1.418  50.392  1.00  0.00    +0.064 C 
ATOM     15  H   UNL     1      23.215   1.097  51.198  1.00  0.00    +0.166 HD
ATOM     16  C   UNL     1      21.320  -1.257  54.695  1.00  0.00    +0.046 C 
ENDBRANCH   8   9
ENDBRANCH   1   7
BRANCH   6  17
ATOM     17  O   UNL     1      26.797   2.850  53.799  1.00  0.00    -0.504 OA
ATOM     18  H   UNL     1      25.880   2.803  54.122  1.00  0.00    +0.293 HD
ENDBRANCH   6  17
BRANCH   3  19
ATOM     19  C   UNL     1      29.095  -2.285  53.372  1.00  0.00    +0.335 C 
ATOM     20  O   UNL     1      30.223  -2.556  53.737  1.00  0.00    -0.246 OA
BRANCH  19  21
ATOM     21  O   UNL     1      28.302  -3.215  52.807  1.00  0.00    -0.478 OA
ATOM     22  H   UNL     1      27.484  -3.180  53.348  1.00  0.00    +0.297 HD
ENDBRANCH  19  21
ENDBRANCH   3  19
BRANCH   5  23
ATOM     23  O   UNL     1      29.363   2.426  54.464  1.00  0.00    -0.504 OA
ATOM     24  H   UNL     1      28.983   3.205  54.011  1.00  0.00    +0.293 HD
ENDBRANCH   5  23
TORSDOF 6
ENDMDL
MODEL 2
REMARK VINA RESULT:    -7.798      0.877      2.981
REMARK INTER + INTRA:         -10.332
REMARK INTER:                  -9.867
REMARK INTRA:                  -0.465
REMARK UNBOUND:                -0.483
REMARK SMILES Cc1cc(C)c(C=Cc2cc(C(=O)O)cc(O)c2O)[nH]1
REMARK SMILES IDX 9 1 10 2 11 3 15 4 16 5 18 6 8 7 7 8 6 9 2 10 3 11 20 12
REMARK SMILES IDX 4 13 1 14 5 16 19 17 12 19 13 20 14 21 17 23
REMARK H PARENT 20 15 19 18 14 22 17 24
ROOT
ATOM      1  C   UNL     1      26.812  -0.357  53.042  1.00  0.00    +0.021 A 
ATOM      2  C   UNL     1      27.385   0.878  53.383  1.00  0.00    +0.028 A 
ATOM      3  C   UNL     1      28.734   0.960  53.769  1.00  0.00    +0.064 A 
ATOM      4  C   UNL     1      29.520  -0.198  53.812  1.00  0.00    +0.065 A 
ATOM      5  C   UNL     1      28.950  -1.415  53.476  1.00  0.00    +0.158 A 
ATOM      6  C   UNL     1      27.609  -1.506  53.099  1.00  0.00    +0.164 A 
ENDROOT
BRANCH   1   7
ATOM      7  C   UNL     1      25.405  -0.413  52.631  1.00  0.00    +0.014 C 
ATOM      8  C   UNL     1      24.442   0.183  53.344  1.00  0.00    +0.027 C 
BRANCH   8   9
ATOM      9  C   UNL     1      23.082   0.119  52.949  1.00  0.00    +0.041 A 
ATOM     10  C   UNL     1      21.421   0.544  51.480  1.00  0.00    +0.012 A 
ATOM     11  C   UNL     1      20.873  -0.134  52.547  1.00  0.00    +0.026 A 
ATOM     12  N   UNL     1      22.756   0.712  51.747  1.00  0.00    -0.359 N 
ATOM     13  C   UNL     1      21.911  -0.399  53.486  1.00  0.00    -0.026 A 
ATOM     14  C   UNL     1      20.795   1.044  50.232  1.00  0.00    +0.064 C 
ATOM     15  H   UNL     1      23.413   1.165  51.128  1.00  0.00    +0.166 HD
ATOM     16  C   UNL     1      21.725  -1.096  54.788  1.00  0.00    +0.046 C 
ENDBRANCH   8   9
ENDBRANCH   1   7
BRANCH   6  17
ATOM     17  O   UNL     1      27.140  -2.762  52.810  1.00  0.00    -0.504 OA
ATOM     18  H   UNL     1      26.172  -2.711  52.724  1.00  0.00    +0.293 HD
ENDBRANCH   6  17
BRANCH   3  19
ATOM     19  C   UNL     1      29.367   2.248  54.139  1.00  0.00    +0.335 C 
ATOM     20  O   UNL     1      29.830   2.533  55.228  1.00  0.00    -0.246 OA
BRANCH  19  21
ATOM     21  O   UNL     1      29.387   3.129  53.121  1.00  0.00    -0.478 OA
ATOM     22  H   UNL     1      28.499   3.033  52.716  1.00  0.00    +0.297 HD
ENDBRANCH  19  21
ENDBRANCH   3  19
BRANCH   5  23
ATOM     23  O   UNL     1      29.718  -2.544  53.525  1.00  0.00    -0.504 OA
ATOM     24  H   UNL     1      29.125  -3.261  53.228  1.00  0.00    +0.293 HD
ENDBRANCH   5  23
TORSDOF 6
ENDMDL
MODEL 3
REMARK VINA RESULT:    -7.523      0.851      1.702
REMARK INTER + INTRA:          -9.985
REMARK INTER:                  -9.630
REMARK INTRA:                  -0.356
REMARK UNBOUND:                -0.483
REMARK SMILES Cc1cc(C)c(C=Cc2cc(C(=O)O)cc(O)c2O)[nH]1
REMARK SMILES IDX 9 1 10 2 11 3 15 4 16 5 18 6 8 7 7 8 6 9 2 10 3 11 20 12
REMARK SMILES IDX 4 13 1 14 5 16 19 17 12 19 13 20 14 21 17 23
REMARK H PARENT 20 15 19 18 14 22 17 24
ROOT
ATOM      1  C   UNL     1      26.495   0.536  53.267  1.00  0.00    +0.021 A 
ATOM      2  C   UNL     1      27.035  -0.755  53.149  1.00  0.00    +0.028 A 
ATOM      3  C   UNL     1      28.373  -1.006  53.496  1.00  0.00    +0.064 A 
ATOM      4  C   UNL     1      29.181   0.036  53.967  1.00  0.00    +0.065 A 
ATOM      5  C   UNL     1      28.644   1.309  54.079  1.00  0.00    +0.158 A 
ATOM      6  C   UNL     1      27.318   1.568  53.731  1.00  0.00    +0.164 A 
ENDROOT
BRANCH   1   7
ATOM      7  C   UNL     1      25.091   0.769  52.911  1.00  0.00    +0.014 C 
ATOM      8  C   UNL     1      24.166  -0.191  53.042  1.00  0.00    +0.027 C 
BRANCH   8   9
ATOM      9  C   UNL     1      22.812   0.034  52.688  1.00  0.00    +0.041 A 
ATOM     10  C   UNL     1      20.601  -0.314  52.984  1.00  0.00    +0.012 A 
ATOM     11  C   UNL     1      20.750   0.575  51.942  1.00  0.00    +0.026 A 
ATOM     12  N   UNL     1      21.860  -0.653  53.412  1.00  0.00    -0.359 N 
ATOM     13  C   UNL     1      22.143   0.794  51.739  1.00  0.00    -0.026 A 
ATOM     14  C   UNL     1      19.377  -0.868  53.611  1.00  0.00    +0.064 C 
ATOM     15  H   UNL     1      22.056  -1.280  54.179  1.00  0.00    +0.166 HD
ATOM     16  C   UNL     1      22.723   1.676  50.689  1.00  0.00    +0.046 C 
ENDBRANCH   8   9
ENDBRANCH   1   7
BRANCH   6  17
ATOM     17  O   UNL     1      26.896   2.867  53.859  1.00  0.00    -0.504 OA
ATOM     18  H   UNL     1      26.201   2.893  54.541  1.00  0.00    +0.293 HD
ENDBRANCH   6  17
BRANCH   3  19
ATOM     19  C   UNL     1      28.973  -2.356  53.378  1.00  0.00    +0.335 C 
ATOM     20  O   UNL     1      29.993  -2.738  53.921  1.00  0.00    -0.246 OA
BRANCH  19  21
ATOM     21  O   UNL     1      28.264  -3.172  52.575  1.00  0.00    -0.478 OA
ATOM     22  H   UNL     1      28.245  -2.694  51.719  1.00  0.00    +0.297 HD
ENDBRANCH  19  21
ENDBRANCH   3  19
BRANCH   5  23
ATOM     23  O   UNL     1      29.437   2.325  54.534  1.00  0.00    -0.504 OA
ATOM     24  H   UNL     1      30.166   2.379  53.885  1.00  0.00    +0.293 HD
ENDBRANCH   5  23
TORSDOF 6
ENDMDL
MODEL 4
REMARK VINA RESULT:    -7.438      2.824      4.377
REMARK INTER + INTRA:          -9.878
REMARK INTER:                  -9.533
REMARK INTRA:                  -0.345
REMARK UNBOUND:                -0.483
REMARK SMILES Cc1cc(C)c(C=Cc2cc(C(=O)O)cc(O)c2O)[nH]1
REMARK SMILES IDX 9 1 10 2 11 3 15 4 16 5 18 6 8 7 7 8 6 9 2 10 3 11 20 12
REMARK SMILES IDX 4 13 1 14 5 16 19 17 12 19 13 20 14 21 17 23
REMARK H PARENT 20 15 19 18 14 22 17 24
ROOT
ATOM      1  C   UNL     1      23.601  -0.463  53.980  1.00  0.00    +0.021 A 
ATOM      2  C   UNL     1      24.473   0.395  53.291  1.00  0.00    +0.028 A 
ATOM      3  C   UNL     1      25.742   0.697  53.813  1.00  0.00    +0.064 A 
ATOM      4  C   UNL     1      26.149   0.138  55.030  1.00  0.00    +0.065 A 
ATOM      5  C   UNL     1      25.284  -0.707  55.708  1.00  0.00    +0.158 A 
ATOM      6  C   UNL     1      24.019  -1.006  55.200  1.00  0.00    +0.164 A 
ENDROOT
BRANCH   1   7
ATOM      7  C   UNL     1      22.287  -0.773  53.407  1.00  0.00    +0.014 C 
ATOM      8  C   UNL     1      21.153  -0.370  53.994  1.00  0.00    +0.027 C 
BRANCH   8   9
ATOM      9  C   UNL     1      19.885  -0.680  53.443  1.00  0.00    +0.041 A 
ATOM     10  C   UNL     1      18.054  -1.993  53.294  1.00  0.00    +0.012 A 
ATOM     11  C   UNL     1      17.880  -0.933  52.431  1.00  0.00    +0.026 A 
ATOM     12  N   UNL     1      19.283  -1.840  53.884  1.00  0.00    -0.359 N 
ATOM     13  C   UNL     1      19.035  -0.102  52.510  1.00  0.00    -0.026 A 
ATOM     14  C   UNL     1      17.161  -3.134  53.612  1.00  0.00    +0.064 C 
ATOM     15  H   UNL     1      19.670  -2.466  54.577  1.00  0.00    +0.166 HD
ATOM     16  C   UNL     1      19.248   1.138  51.713  1.00  0.00    +0.046 C 
ENDBRANCH   8   9
ENDBRANCH   1   7
BRANCH   6  17
ATOM     17  O   UNL     1      23.236  -1.835  55.962  1.00  0.00    -0.504 OA
ATOM     18  H   UNL     1      23.163  -2.690  55.502  1.00  0.00    +0.293 HD
ENDBRANCH   6  17
BRANCH   3  19
ATOM     19  C   UNL     1      26.683   1.603  53.112  1.00  0.00    +0.335 C 
ATOM     20  O   UNL     1      26.999   1.540  51.939  1.00  0.00    -0.246 OA
BRANCH  19  21
ATOM     21  O   UNL     1      27.191   2.552  53.921  1.00  0.00    -0.478 OA
ATOM     22  H   UNL     1      27.400   2.064  54.746  1.00  0.00    +0.297 HD
ENDBRANCH  19  21
ENDBRANCH   3  19
BRANCH   5  23
ATOM     23  O   UNL     1      25.682  -1.247  56.898  1.00  0.00    -0.504 OA
ATOM     24  H   UNL     1      26.282  -1.978  56.651  1.00  0.00    +0.293 HD
ENDBRANCH   5  23
TORSDOF 6
ENDMDL
MODEL 5
REMARK VINA RESULT:    -7.237      2.563      3.037
REMARK INTER + INTRA:          -9.624
REMARK INTER:                  -9.140
REMARK INTRA:                  -0.484
REMARK UNBOUND:                -0.483
REMARK SMILES Cc1cc(C)c(C=Cc2cc(C(=O)O)cc(O)c2O)[nH]1
REMARK SMILES IDX 9 1 10 2 11 3 15 4 16 5 18 6 8 7 7 8 6 9 2 10 3 11 20 12
REMARK SMILES IDX 4 13 1 14 5 16 19 17 12 19 13 20 14 21 17 23
REMARK H PARENT 20 15 19 18 14 22 17 24
ROOT
ATOM      1  C   UNL     1      26.897   1.288  52.742  1.00  0.00    +0.021 A 
ATOM      2  C   UNL     1      26.757  -0.081  52.461  1.00  0.00    +0.028 A 
ATOM      3  C   UNL     1      27.710  -1.007  52.915  1.00  0.00    +0.064 A 
ATOM      4  C   UNL     1      28.811  -0.570  53.660  1.00  0.00    +0.065 A 
ATOM      5  C   UNL     1      28.947   0.782  53.934  1.00  0.00    +0.158 A 
ATOM      6  C   UNL     1      28.009   1.710  53.480  1.00  0.00    +0.164 A 
ENDROOT
BRANCH   1   7
ATOM      7  C   UNL     1      25.882   2.232  52.267  1.00  0.00    +0.014 C 
ATOM      8  C   UNL     1      24.717   2.391  52.908  1.00  0.00    +0.027 C 
BRANCH   8   9
ATOM      9  C   UNL     1      23.733   3.298  52.441  1.00  0.00    +0.041 A 
ATOM     10  C   UNL     1      23.119   5.309  51.619  1.00  0.00    +0.012 A 
ATOM     11  C   UNL     1      21.984   4.535  51.722  1.00  0.00    +0.026 A 
ATOM     12  N   UNL     1      24.169   4.555  52.080  1.00  0.00    -0.359 N 
ATOM     13  C   UNL     1      22.358   3.265  52.250  1.00  0.00    -0.026 A 
ATOM     14  C   UNL     1      23.299   6.695  51.121  1.00  0.00    +0.064 C 
ATOM     15  H   UNL     1      25.130   4.865  52.106  1.00  0.00    +0.166 HD
ATOM     16  C   UNL     1      21.414   2.150  52.534  1.00  0.00    +0.046 C 
ENDBRANCH   8   9
ENDBRANCH   1   7
BRANCH   6  17
ATOM     17  O   UNL     1      28.252   3.025  53.788  1.00  0.00    -0.504 OA
ATOM     18  H   UNL     1      29.015   3.058  54.392  1.00  0.00    +0.293 HD
ENDBRANCH   6  17
BRANCH   3  19
ATOM     19  C   UNL     1      27.592  -2.457  52.630  1.00  0.00    +0.335 C 
ATOM     20  O   UNL     1      26.817  -2.974  51.846  1.00  0.00    -0.246 OA
BRANCH  19  21
ATOM     21  O   UNL     1      28.455  -3.200  53.349  1.00  0.00    -0.478 OA
ATOM     22  H   UNL     1      29.326  -2.795  53.153  1.00  0.00    +0.297 HD
ENDBRANCH  19  21
ENDBRANCH   3  19
BRANCH   5  23
ATOM     23  O   UNL     1      30.026   1.207  54.657  1.00  0.00    -0.504 OA
ATOM     24  H   UNL     1      29.804   0.990  55.584  1.00  0.00    +0.293 HD
ENDBRANCH   5  23
TORSDOF 6
ENDMDL
MODEL 6
REMARK VINA RESULT:    -7.102      2.469      2.972
REMARK INTER + INTRA:          -9.454
REMARK INTER:                  -8.973
REMARK INTRA:                  -0.481
REMARK UNBOUND:                -0.483
REMARK SMILES Cc1cc(C)c(C=Cc2cc(C(=O)O)cc(O)c2O)[nH]1
REMARK SMILES IDX 9 1 10 2 11 3 15 4 16 5 18 6 8 7 7 8 6 9 2 10 3 11 20 12
REMARK SMILES IDX 4 13 1 14 5 16 19 17 12 19 13 20 14 21 17 23
REMARK H PARENT 20 15 19 18 14 22 17 24
ROOT
ATOM      1  C   UNL     1      25.687   1.724  52.426  1.00  0.00    +0.021 A 
ATOM      2  C   UNL     1      25.516   0.905  53.554  1.00  0.00    +0.028 A 
ATOM      3  C   UNL     1      26.566   0.719  54.469  1.00  0.00    +0.064 A 
ATOM      4  C   UNL     1      27.795   1.357  54.263  1.00  0.00    +0.065 A 
ATOM      5  C   UNL     1      27.959   2.163  53.147  1.00  0.00    +0.158 A 
ATOM      6  C   UNL     1      26.924   2.346  52.230  1.00  0.00    +0.164 A 
ENDROOT
BRANCH   1   7
ATOM      7  C   UNL     1      24.571   1.911  51.493  1.00  0.00    +0.014 C 
ATOM      8  C   UNL     1      23.458   1.171  51.572  1.00  0.00    +0.027 C 
BRANCH   8   9
ATOM      9  C   UNL     1      22.386   1.347  50.663  1.00  0.00    +0.041 A 
ATOM     10  C   UNL     1      21.545   2.112  48.711  1.00  0.00    +0.012 A 
ATOM     11  C   UNL     1      20.527   1.474  49.384  1.00  0.00    +0.026 A 
ATOM     12  N   UNL     1      22.661   2.050  49.508  1.00  0.00    -0.359 N 
ATOM     13  C   UNL     1      21.043   0.995  50.623  1.00  0.00    -0.026 A 
ATOM     14  C   UNL     1      21.557   2.774  47.384  1.00  0.00    +0.064 C 
ATOM     15  H   UNL     1      23.565   2.425  49.260  1.00  0.00    +0.166 HD
ATOM     16  C   UNL     1      20.251   0.266  51.652  1.00  0.00    +0.046 C 
ENDBRANCH   8   9
ENDBRANCH   1   7
BRANCH   6  17
ATOM     17  O   UNL     1      27.201   3.146  51.150  1.00  0.00    -0.504 OA
ATOM     18  H   UNL     1      26.645   3.942  51.212  1.00  0.00    +0.293 HD
ENDBRANCH   6  17
BRANCH   3  19
ATOM     19  C   UNL     1      26.418  -0.143  55.666  1.00  0.00    +0.335 C 
ATOM     20  O   UNL     1      27.086  -0.081  56.681  1.00  0.00    -0.246 OA
BRANCH  19  21
ATOM     21  O   UNL     1      25.435  -1.053  55.534  1.00  0.00    -0.478 OA
ATOM     22  H   UNL     1      24.916  -0.953  56.360  1.00  0.00    +0.297 HD
ENDBRANCH  19  21
ENDBRANCH   3  19
BRANCH   5  23
ATOM     23  O   UNL     1      29.162   2.779  52.946  1.00  0.00    -0.504 OA
ATOM     24  H   UNL     1      29.681   2.142  52.417  1.00  0.00    +0.293 HD
ENDBRANCH   5  23
TORSDOF 6
ENDMDL
MODEL 7
REMARK VINA RESULT:    -6.951      4.308      6.860
REMARK INTER + INTRA:          -9.263
REMARK INTER:                  -8.871
REMARK INTRA:                  -0.391
REMARK UNBOUND:                -0.483
REMARK SMILES Cc1cc(C)c(C=Cc2cc(C(=O)O)cc(O)c2O)[nH]1
REMARK SMILES IDX 9 1 10 2 11 3 15 4 16 5 18 6 8 7 7 8 6 9 2 10 3 11 20 12
REMARK SMILES IDX 4 13 1 14 5 16 19 17 12 19 13 20 14 21 17 23
REMARK H PARENT 20 15 19 18 14 22 17 24
ROOT
ATOM      1  C   UNL     1      22.793   0.223  52.844  1.00  0.00    +0.021 A 
ATOM      2  C   UNL     1      21.419   0.213  52.558  1.00  0.00    +0.028 A 
ATOM      3  C   UNL     1      20.526  -0.518  53.360  1.00  0.00    +0.064 A 
ATOM      4  C   UNL     1      21.004  -1.243  54.458  1.00  0.00    +0.065 A 
ATOM      5  C   UNL     1      22.362  -1.231  54.735  1.00  0.00    +0.158 A 
ATOM      6  C   UNL     1      23.256  -0.514  53.940  1.00  0.00    +0.164 A 
ENDROOT
BRANCH   1   7
ATOM      7  C   UNL     1      23.702   1.004  51.999  1.00  0.00    +0.014 C 
ATOM      8  C   UNL     1      23.543   2.324  51.831  1.00  0.00    +0.027 C 
BRANCH   8   9
ATOM      9  C   UNL     1      24.417   3.075  51.006  1.00  0.00    +0.041 A 
ATOM     10  C   UNL     1      24.799   4.685  49.470  1.00  0.00    +0.012 A 
ATOM     11  C   UNL     1      26.015   4.138  49.815  1.00  0.00    +0.026 A 
ATOM     12  N   UNL     1      23.835   4.015  50.181  1.00  0.00    -0.359 N 
ATOM     13  C   UNL     1      25.786   3.113  50.778  1.00  0.00    -0.026 A 
ATOM     14  C   UNL     1      24.467   5.783  48.530  1.00  0.00    +0.064 C 
ATOM     15  H   UNL     1      22.847   4.216  50.139  1.00  0.00    +0.166 HD
ATOM     16  C   UNL     1      26.846   2.265  51.388  1.00  0.00    +0.046 C 
ENDBRANCH   8   9
ENDBRANCH   1   7
BRANCH   6  17
ATOM     17  O   UNL     1      24.581  -0.589  54.290  1.00  0.00    -0.504 OA
ATOM     18  H   UNL     1      25.114  -0.367  53.506  1.00  0.00    +0.293 HD
ENDBRANCH   6  17
BRANCH   3  19
ATOM     19  C   UNL     1      19.070  -0.553  53.081  1.00  0.00    +0.335 C 
ATOM     20  O   UNL     1      18.516  -0.089  52.102  1.00  0.00    -0.246 OA
BRANCH  19  21
ATOM     21  O   UNL     1      18.369  -1.169  54.052  1.00  0.00    -0.478 OA
ATOM     22  H   UNL     1      18.757  -2.069  54.081  1.00  0.00    +0.297 HD
ENDBRANCH  19  21
ENDBRANCH   3  19
BRANCH   5  23
ATOM     23  O   UNL     1      22.826  -1.944  55.805  1.00  0.00    -0.504 OA
ATOM     24  H   UNL     1      22.906  -1.287  56.525  1.00  0.00    +0.293 HD
ENDBRANCH   5  23
TORSDOF 6
ENDMDL
MODEL 8
REMARK VINA RESULT:    -6.896      3.884      5.740
REMARK INTER + INTRA:          -9.194
REMARK INTER:                  -8.703
REMARK INTRA:                  -0.491
REMARK UNBOUND:                -0.483
REMARK SMILES Cc1cc(C)c(C=Cc2cc(C(=O)O)cc(O)c2O)[nH]1
REMARK SMILES IDX 9 1 10 2 11 3 15 4 16 5 18 6 8 7 7 8 6 9 2 10 3 11 20 12
REMARK SMILES IDX 4 13 1 14 5 16 19 17 12 19 13 20 14 21 17 23
REMARK H PARENT 20 15 19 18 14 22 17 24
ROOT
ATOM      1  C   UNL     1      22.550   0.563  52.719  1.00  0.00    +0.021 A 
ATOM      2  C   UNL     1      23.810   0.313  53.285  1.00  0.00    +0.028 A 
ATOM      3  C   UNL     1      23.953  -0.607  54.338  1.00  0.00    +0.064 A 
ATOM      4  C   UNL     1      22.832  -1.288  54.829  1.00  0.00    +0.065 A 
ATOM      5  C   UNL     1      21.590  -1.036  54.268  1.00  0.00    +0.158 A 
ATOM      6  C   UNL     1      21.438  -0.119  53.228  1.00  0.00    +0.164 A 
ENDROOT
BRANCH   1   7
ATOM      7  C   UNL     1      22.430   1.519  51.613  1.00  0.00    +0.014 C 
ATOM      8  C   UNL     1      23.509   2.017  50.997  1.00  0.00    +0.027 C 
BRANCH   8   9
ATOM      9  C   UNL     1      23.391   2.948  49.935  1.00  0.00    +0.041 A 
ATOM     10  C   UNL     1      23.759   4.986  49.033  1.00  0.00    +0.012 A 
ATOM     11  C   UNL     1      23.090   4.228  48.097  1.00  0.00    +0.026 A 
ATOM     12  N   UNL     1      23.914   4.206  50.152  1.00  0.00    -0.359 N 
ATOM     13  C   UNL     1      22.843   2.942  48.660  1.00  0.00    -0.026 A 
ATOM     14  C   UNL     1      24.265   6.378  48.963  1.00  0.00    +0.064 C 
ATOM     15  H   UNL     1      24.387   4.500  50.995  1.00  0.00    +0.166 HD
ATOM     16  C   UNL     1      22.122   1.836  47.973  1.00  0.00    +0.046 C 
ENDBRANCH   8   9
ENDBRANCH   1   7
BRANCH   6  17
ATOM     17  O   UNL     1      20.162   0.071  52.762  1.00  0.00    -0.504 OA
ATOM     18  H   UNL     1      20.059  -0.446  51.943  1.00  0.00    +0.293 HD
ENDBRANCH   6  17
BRANCH   3  19
ATOM     19  C   UNL     1      25.268  -0.889  54.959  1.00  0.00    +0.335 C 
ATOM     20  O   UNL     1      26.354  -0.790  54.418  1.00  0.00    -0.246 OA
BRANCH  19  21
ATOM     21  O   UNL     1      25.163  -1.289  56.241  1.00  0.00    -0.478 OA
ATOM     22  H   UNL     1      25.710  -0.638  56.731  1.00  0.00    +0.297 HD
ENDBRANCH  19  21
ENDBRANCH   3  19
BRANCH   5  23
ATOM     23  O   UNL     1      20.497  -1.698  54.753  1.00  0.00    -0.504 OA
ATOM     24  H   UNL     1      20.078  -2.095  53.965  1.00  0.00    +0.293 HD
ENDBRANCH   5  23
TORSDOF 6
ENDMDL
MODEL 9
REMARK VINA RESULT:    -6.869      2.357      3.519
REMARK INTER + INTRA:          -9.159
REMARK INTER:                  -8.685
REMARK INTRA:                  -0.473
REMARK UNBOUND:                -0.483
REMARK SMILES Cc1cc(C)c(C=Cc2cc(C(=O)O)cc(O)c2O)[nH]1
REMARK SMILES IDX 9 1 10 2 11 3 15 4 16 5 18 6 8 7 7 8 6 9 2 10 3 11 20 12
REMARK SMILES IDX 4 13 1 14 5 16 19 17 12 19 13 20 14 21 17 23
REMARK H PARENT 20 15 19 18 14 22 17 24
ROOT
ATOM      1  C   UNL     1      24.306   0.964  52.387  1.00  0.00    +0.021 A 
ATOM      2  C   UNL     1      24.878   0.402  53.540  1.00  0.00    +0.028 A 
ATOM      3  C   UNL     1      26.170   0.769  53.951  1.00  0.00    +0.064 A 
ATOM      4  C   UNL     1      26.900   1.707  53.211  1.00  0.00    +0.065 A 
ATOM      5  C   UNL     1      26.333   2.258  52.072  1.00  0.00    +0.158 A 
ATOM      6  C   UNL     1      25.052   1.894  51.653  1.00  0.00    +0.164 A 
ENDROOT
BRANCH   1   7
ATOM      7  C   UNL     1      22.951   0.574  51.987  1.00  0.00    +0.014 C 
ATOM      8  C   UNL     1      21.890   0.830  52.763  1.00  0.00    +0.027 C 
BRANCH   8   9
ATOM      9  C   UNL     1      20.582   0.442  52.378  1.00  0.00    +0.041 A 
ATOM     10  C   UNL     1      18.665  -0.697  52.736  1.00  0.00    +0.012 A 
ATOM     11  C   UNL     1      18.524  -0.001  51.556  1.00  0.00    +0.026 A 
ATOM     12  N   UNL     1      19.926  -0.439  53.212  1.00  0.00    -0.359 N 
ATOM     13  C   UNL     1      19.733   0.715  51.314  1.00  0.00    -0.026 A 
ATOM     14  C   UNL     1      17.715  -1.582  53.452  1.00  0.00    +0.064 C 
ATOM     15  H   UNL     1      20.300  -0.807  54.076  1.00  0.00    +0.166 HD
ATOM     16  C   UNL     1      19.991   1.574  50.126  1.00  0.00    +0.046 C 
ENDBRANCH   8   9
ENDBRANCH   1   7
BRANCH   6  17
ATOM     17  O   UNL     1      24.596   2.483  50.501  1.00  0.00    -0.504 OA
ATOM     18  H   UNL     1      23.891   1.921  50.133  1.00  0.00    +0.293 HD
ENDBRANCH   6  17
BRANCH   3  19
ATOM     19  C   UNL     1      26.803   0.189  55.159  1.00  0.00    +0.335 C 
ATOM     20  O   UNL     1      26.255  -0.512  55.989  1.00  0.00    -0.246 OA
BRANCH  19  21
ATOM     21  O   UNL     1      28.102   0.522  55.277  1.00  0.00    -0.478 OA
ATOM     22  H   UNL     1      28.493  -0.240  55.756  1.00  0.00    +0.297 HD
ENDBRANCH  19  21
ENDBRANCH   3  19
BRANCH   5  23
ATOM     23  O   UNL     1      27.049   3.169  51.349  1.00  0.00    -0.504 OA
ATOM     24  H   UNL     1      26.901   2.917  50.416  1.00  0.00    +0.293 HD
ENDBRANCH   5  23
TORSDOF 6
ENDMDL
