MODEL 1
REMARK VINA RESULT:    -9.154      0.000      0.000
REMARK INTER + INTRA:         -11.206
REMARK INTER:                 -10.224
REMARK INTRA:                  -0.982
REMARK UNBOUND:                -0.982
REMARK SMILES Cc1cccc(C=C2C(=O)N(C)c3ncnc(-c4[nH]c(C)cc4C)c32)c1
REMARK SMILES IDX 7 1 8 2 9 3 10 4 11 5 12 6 13 7 14 8 15 9 16 10 17 11 25 12
REMARK SMILES IDX 6 13 2 14 3 15 26 16 4 17 5 18 1 19 18 20 19 21 23 22 20 23
REMARK SMILES IDX 22 24 24 26 21 27
REMARK H PARENT 19 25
ROOT
ATOM      1  C   UNL     1      23.910   1.702  51.899  1.00  0.00    +0.022 C 
ATOM      2  C   UNL     1      23.136   0.859  52.600  1.00  0.00    +0.054 C 
ATOM      3  C   UNL     1      21.636   0.717  52.498  1.00  0.00    +0.260 C 
ATOM      4  O   UNL     1      20.887   1.243  51.698  1.00  0.00    -0.269 OA
ATOM      5  N   UNL     1      21.295  -0.140  53.532  1.00  0.00    -0.295 N 
ATOM      6  C   UNL     1      19.965  -0.568  53.861  1.00  0.00    +0.155 C 
ATOM      7  C   UNL     1      22.422  -0.568  54.241  1.00  0.00    +0.147 A 
ATOM      8  N   UNL     1      22.371  -1.396  55.293  1.00  0.00    -0.218 NA
ATOM      9  C   UNL     1      23.570  -1.679  55.815  1.00  0.00    +0.225 A 
ATOM     10  N   UNL     1      24.756  -1.228  55.371  1.00  0.00    -0.234 NA
ATOM     11  C   UNL     1      24.739  -0.425  54.280  1.00  0.00    +0.100 A 
ATOM     12  C   UNL     1      23.569  -0.021  53.691  1.00  0.00    +0.058 A 
ENDROOT
BRANCH   1  13
ATOM     13  C   UNL     1      23.492   2.608  50.824  1.00  0.00    -0.025 A 
ATOM     14  C   UNL     1      22.770   3.010  48.531  1.00  0.00    -0.051 A 
ATOM     15  C   UNL     1      22.821   4.388  48.767  1.00  0.00    +0.003 A 
ATOM     16  C   UNL     1      23.128   2.126  49.560  1.00  0.00    +0.011 A 
ATOM     17  C   UNL     1      23.196   4.876  50.018  1.00  0.00    +0.001 A 
ATOM     18  C   UNL     1      23.533   3.989  51.042  1.00  0.00    +0.008 A 
ATOM     19  C   UNL     1      22.392   2.481  47.179  1.00  0.00    +0.044 C 
ENDBRANCH   1  13
BRANCH  11  20
ATOM     20  C   UNL     1      26.075  -0.074  53.820  1.00  0.00    +0.068 A 
ATOM     21  N   UNL     1      26.677   1.095  54.230  1.00  0.00    -0.357 N 
ATOM     22  C   UNL     1      27.003  -0.761  53.045  1.00  0.00    -0.024 A 
ATOM     23  C   UNL     1      27.915   1.224  53.657  1.00  0.00    +0.012 A 
ATOM     24  C   UNL     1      28.144   0.084  52.920  1.00  0.00    +0.026 A 
ATOM     25  H   UNL     1      26.253   1.755  54.869  1.00  0.00    +0.166 HD
ATOM     26  C   UNL     1      26.874  -2.118  52.446  1.00  0.00    +0.047 C 
ATOM     27  C   UNL     1      28.766   2.415  53.896  1.00  0.00    +0.064 C 
ENDBRANCH  11  20
TORSDOF 2
ENDMDL
MODEL 2
REMARK VINA RESULT:    -9.081      1.956      5.619
REMARK INTER + INTRA:         -11.125
REMARK INTER:                 -10.623
REMARK INTRA:                  -0.502
REMARK UNBOUND:                -0.982
REMARK SMILES Cc1cccc(C=C2C(=O)N(C)c3ncnc(-c4[nH]c(C)cc4C)c32)c1
REMARK SMILES IDX 7 1 8 2 9 3 10 4 11 5 12 6 13 7 14 8 15 9 16 10 17 11 25 12
REMARK SMILES IDX 6 13 2 14 3 15 26 16 4 17 5 18 1 19 18 20 19 21 23 22 20 23
REMARK SMILES IDX 22 24 24 26 21 27
REMARK H PARENT 19 25
ROOT
ATOM      1  C   UNL     1      25.335   0.962  52.266  1.00  0.00    +0.022 C 
ATOM      2  C   UNL     1      24.187   0.512  52.798  1.00  0.00    +0.054 C 
ATOM      3  C   UNL     1      24.045  -0.441  53.962  1.00  0.00    +0.260 C 
ATOM      4  O   UNL     1      24.921  -0.870  54.687  1.00  0.00    -0.269 OA
ATOM      5  N   UNL     1      22.691  -0.729  54.013  1.00  0.00    -0.295 N 
ATOM      6  C   UNL     1      22.060  -1.616  54.950  1.00  0.00    +0.155 C 
ATOM      7  C   UNL     1      21.977  -0.036  53.031  1.00  0.00    +0.147 A 
ATOM      8  N   UNL     1      20.653  -0.142  52.858  1.00  0.00    -0.218 NA
ATOM      9  C   UNL     1      20.177   0.616  51.864  1.00  0.00    +0.225 A 
ATOM     10  N   UNL     1      20.893   1.442  51.082  1.00  0.00    -0.234 NA
ATOM     11  C   UNL     1      22.222   1.530  51.335  1.00  0.00    +0.100 A 
ATOM     12  C   UNL     1      22.833   0.761  52.292  1.00  0.00    +0.058 A 
ENDROOT
BRANCH   1  13
ATOM     13  C   UNL     1      26.698   0.702  52.743  1.00  0.00    -0.025 A 
ATOM     14  C   UNL     1      28.552  -0.818  53.182  1.00  0.00    -0.051 A 
ATOM     15  C   UNL     1      29.257   0.232  53.781  1.00  0.00    +0.003 A 
ATOM     16  C   UNL     1      27.263  -0.578  52.683  1.00  0.00    +0.011 A 
ATOM     17  C   UNL     1      28.695   1.506  53.857  1.00  0.00    +0.001 A 
ATOM     18  C   UNL     1      27.419   1.739  53.342  1.00  0.00    +0.008 A 
ATOM     19  C   UNL     1      29.141  -2.196  53.122  1.00  0.00    +0.044 C 
ENDBRANCH   1  13
BRANCH  11  20
ATOM     20  C   UNL     1      22.888   2.522  50.503  1.00  0.00    +0.068 A 
ATOM     21  N   UNL     1      23.672   3.504  51.068  1.00  0.00    -0.357 N 
ATOM     22  C   UNL     1      22.985   2.665  49.123  1.00  0.00    -0.024 A 
ATOM     23  C   UNL     1      24.177   4.332  50.099  1.00  0.00    +0.012 A 
ATOM     24  C   UNL     1      23.770   3.830  48.882  1.00  0.00    +0.026 A 
ATOM     25  H   UNL     1      23.842   3.588  52.061  1.00  0.00    +0.166 HD
ATOM     26  C   UNL     1      22.404   1.792  48.066  1.00  0.00    +0.047 C 
ATOM     27  C   UNL     1      25.022   5.502  50.435  1.00  0.00    +0.064 C 
ENDBRANCH  11  20
TORSDOF 2
ENDMDL
MODEL 3
REMARK VINA RESULT:    -8.484      1.864      5.753
REMARK INTER + INTRA:         -10.458
REMARK INTER:                  -9.856
REMARK INTRA:                  -0.602
REMARK UNBOUND:                -0.982
REMARK SMILES Cc1cccc(C=C2C(=O)N(C)c3ncnc(-c4[nH]c(C)cc4C)c32)c1
REMARK SMILES IDX 7 1 8 2 9 3 10 4 11 5 12 6 13 7 14 8 15 9 16 10 17 11 25 12
REMARK SMILES IDX 6 13 2 14 3 15 26 16 4 17 5 18 1 19 18 20 19 21 23 22 20 23
REMARK SMILES IDX 22 24 24 26 21 27
REMARK H PARENT 19 25
ROOT
ATOM      1  C   UNL     1      25.194   1.090  52.538  1.00  0.00    +0.022 C 
ATOM      2  C   UNL     1      24.145   0.532  53.161  1.00  0.00    +0.054 C 
ATOM      3  C   UNL     1      24.196  -0.493  54.270  1.00  0.00    +0.260 C 
ATOM      4  O   UNL     1      25.173  -0.900  54.868  1.00  0.00    -0.269 OA
ATOM      5  N   UNL     1      22.877  -0.879  54.449  1.00  0.00    -0.295 N 
ATOM      6  C   UNL     1      22.413  -1.859  55.390  1.00  0.00    +0.155 C 
ATOM      7  C   UNL     1      22.015  -0.184  53.596  1.00  0.00    +0.147 A 
ATOM      8  N   UNL     1      20.689  -0.372  53.561  1.00  0.00    -0.218 NA
ATOM      9  C   UNL     1      20.057   0.404  52.675  1.00  0.00    +0.225 A 
ATOM     10  N   UNL     1      20.627   1.322  51.873  1.00  0.00    -0.234 NA
ATOM     11  C   UNL     1      21.967   1.489  51.987  1.00  0.00    +0.100 A 
ATOM     12  C   UNL     1      22.729   0.713  52.821  1.00  0.00    +0.058 A 
ENDROOT
BRANCH   1  13
ATOM     13  C   UNL     1      26.616   0.901  52.846  1.00  0.00    -0.025 A 
ATOM     14  C   UNL     1      28.556  -0.538  53.175  1.00  0.00    -0.051 A 
ATOM     15  C   UNL     1      29.304   0.578  53.566  1.00  0.00    +0.003 A 
ATOM     16  C   UNL     1      27.205  -0.370  52.837  1.00  0.00    +0.011 A 
ATOM     17  C   UNL     1      28.722   1.844  53.592  1.00  0.00    +0.001 A 
ATOM     18  C   UNL     1      27.382   2.005  53.236  1.00  0.00    +0.008 A 
ATOM     19  C   UNL     1      29.172  -1.906  53.171  1.00  0.00    +0.044 C 
ENDBRANCH   1  13
BRANCH  11  20
ATOM     20  C   UNL     1      22.471   2.570  51.153  1.00  0.00    +0.068 A 
ATOM     21  N   UNL     1      22.240   2.580  49.795  1.00  0.00    -0.357 N 
ATOM     22  C   UNL     1      23.131   3.755  51.463  1.00  0.00    -0.024 A 
ATOM     23  C   UNL     1      22.823   3.677  49.216  1.00  0.00    +0.012 A 
ATOM     24  C   UNL     1      23.378   4.425  50.230  1.00  0.00    +0.026 A 
ATOM     25  H   UNL     1      21.709   1.869  49.308  1.00  0.00    +0.166 HD
ATOM     26  C   UNL     1      23.518   4.266  52.806  1.00  0.00    +0.047 C 
ATOM     27  C   UNL     1      22.763   3.912  47.753  1.00  0.00    +0.064 C 
ENDBRANCH  11  20
TORSDOF 2
ENDMDL
MODEL 4
REMARK VINA RESULT:    -8.196      2.574      5.358
REMARK INTER + INTRA:         -10.136
REMARK INTER:                  -9.145
REMARK INTRA:                  -0.991
REMARK UNBOUND:                -0.982
REMARK SMILES Cc1cccc(C=C2C(=O)N(C)c3ncnc(-c4[nH]c(C)cc4C)c32)c1
REMARK SMILES IDX 7 1 8 2 9 3 10 4 11 5 12 6 13 7 14 8 15 9 16 10 17 11 25 12
REMARK SMILES IDX 6 13 2 14 3 15 26 16 4 17 5 18 1 19 18 20 19 21 23 22 20 23
REMARK SMILES IDX 22 24 24 26 21 27
REMARK H PARENT 19 25
ROOT
ATOM      1  C   UNL     1      23.933   2.766  50.965  1.00  0.00    +0.022 C 
ATOM      2  C   UNL     1      24.144   1.924  51.989  1.00  0.00    +0.054 C 
ATOM      3  C   UNL     1      25.443   1.712  52.730  1.00  0.00    +0.260 C 
ATOM      4  O   UNL     1      26.479   2.338  52.616  1.00  0.00    -0.269 OA
ATOM      5  N   UNL     1      25.197   0.635  53.565  1.00  0.00    -0.295 N 
ATOM      6  C   UNL     1      26.146   0.039  54.463  1.00  0.00    +0.155 C 
ATOM      7  C   UNL     1      23.881   0.178  53.444  1.00  0.00    +0.147 A 
ATOM      8  N   UNL     1      23.386  -0.858  54.135  1.00  0.00    -0.218 NA
ATOM      9  C   UNL     1      22.102  -1.119  53.869  1.00  0.00    +0.225 A 
ATOM     10  N   UNL     1      21.313  -0.440  53.017  1.00  0.00    -0.234 NA
ATOM     11  C   UNL     1      21.867   0.620  52.380  1.00  0.00    +0.100 A 
ATOM     12  C   UNL     1      23.188   0.951  52.530  1.00  0.00    +0.058 A 
ENDROOT
BRANCH   1  13
ATOM     13  C   UNL     1      24.884   3.727  50.394  1.00  0.00    -0.025 A 
ATOM     14  C   UNL     1      25.598   6.013  49.945  1.00  0.00    -0.051 A 
ATOM     15  C   UNL     1      26.660   5.520  49.178  1.00  0.00    +0.003 A 
ATOM     16  C   UNL     1      24.702   5.109  50.533  1.00  0.00    +0.011 A 
ATOM     17  C   UNL     1      26.840   4.146  49.023  1.00  0.00    +0.001 A 
ATOM     18  C   UNL     1      25.953   3.253  49.627  1.00  0.00    +0.008 A 
ATOM     19  C   UNL     1      25.386   7.491  50.092  1.00  0.00    +0.044 C 
ENDBRANCH   1  13
BRANCH  11  20
ATOM     20  C   UNL     1      20.908   1.346  51.560  1.00  0.00    +0.068 A 
ATOM     21  N   UNL     1      20.008   2.219  52.131  1.00  0.00    -0.357 N 
ATOM     22  C   UNL     1      20.732   1.424  50.182  1.00  0.00    -0.024 A 
ATOM     23  C   UNL     1      19.196   2.768  51.174  1.00  0.00    +0.012 A 
ATOM     24  C   UNL     1      19.627   2.295  49.954  1.00  0.00    +0.026 A 
ATOM     25  H   UNL     1      19.967   2.417  53.122  1.00  0.00    +0.166 HD
ATOM     26  C   UNL     1      21.523   0.751  49.116  1.00  0.00    +0.047 C 
ATOM     27  C   UNL     1      18.107   3.712  51.522  1.00  0.00    +0.064 C 
ENDBRANCH  11  20
TORSDOF 2
ENDMDL
MODEL 5
REMARK VINA RESULT:    -8.167      2.393      5.197
REMARK INTER + INTRA:         -10.104
REMARK INTER:                 -10.055
REMARK INTRA:                  -0.049
REMARK UNBOUND:                -0.982
REMARK SMILES Cc1cccc(C=C2C(=O)N(C)c3ncnc(-c4[nH]c(C)cc4C)c32)c1
REMARK SMILES IDX 7 1 8 2 9 3 10 4 11 5 12 6 13 7 14 8 15 9 16 10 17 11 25 12
REMARK SMILES IDX 6 13 2 14 3 15 26 16 4 17 5 18 1 19 18 20 19 21 23 22 20 23
REMARK SMILES IDX 22 24 24 26 21 27
REMARK H PARENT 19 25
ROOT
ATOM      1  C   UNL     1      23.413   1.042  52.127  1.00  0.00    +0.022 C 
ATOM      2  C   UNL     1      23.609   2.201  51.479  1.00  0.00    +0.054 C 
ATOM      3  C   UNL     1      22.543   3.170  51.024  1.00  0.00    +0.260 C 
ATOM      4  O   UNL     1      21.351   3.137  51.261  1.00  0.00    -0.269 OA
ATOM      5  N   UNL     1      23.224   4.105  50.261  1.00  0.00    -0.295 N 
ATOM      6  C   UNL     1      22.633   5.227  49.589  1.00  0.00    +0.155 C 
ATOM      7  C   UNL     1      24.596   3.838  50.221  1.00  0.00    +0.147 A 
ATOM      8  N   UNL     1      25.481   4.585  49.547  1.00  0.00    -0.218 NA
ATOM      9  C   UNL     1      26.742   4.152  49.651  1.00  0.00    +0.225 A 
ATOM     10  N   UNL     1      27.161   3.089  50.361  1.00  0.00    -0.234 NA
ATOM     11  C   UNL     1      26.219   2.400  51.050  1.00  0.00    +0.100 A 
ATOM     12  C   UNL     1      24.887   2.716  50.976  1.00  0.00    +0.058 A 
ENDROOT
BRANCH   1  13
ATOM     13  C   UNL     1      22.140   0.499  52.613  1.00  0.00    -0.025 A 
ATOM     14  C   UNL     1      19.793  -0.066  52.279  1.00  0.00    -0.051 A 
ATOM     15  C   UNL     1      19.698  -0.429  53.626  1.00  0.00    +0.003 A 
ATOM     16  C   UNL     1      21.014   0.417  51.785  1.00  0.00    +0.011 A 
ATOM     17  C   UNL     1      20.812  -0.338  54.461  1.00  0.00    +0.001 A 
ATOM     18  C   UNL     1      22.027   0.127  53.958  1.00  0.00    +0.008 A 
ATOM     19  C   UNL     1      18.592  -0.138  51.383  1.00  0.00    +0.044 C 
ENDBRANCH   1  13
BRANCH  11  20
ATOM     20  C   UNL     1      26.785   1.333  51.862  1.00  0.00    +0.068 A 
ATOM     21  N   UNL     1      26.513   0.013  51.581  1.00  0.00    -0.357 N 
ATOM     22  C   UNL     1      27.695   1.347  52.914  1.00  0.00    -0.024 A 
ATOM     23  C   UNL     1      27.133  -0.810  52.485  1.00  0.00    +0.012 A 
ATOM     24  C   UNL     1      27.878  -0.007  53.321  1.00  0.00    +0.026 A 
ATOM     25  H   UNL     1      25.934  -0.292  50.809  1.00  0.00    +0.166 HD
ATOM     26  C   UNL     1      28.375   2.522  53.525  1.00  0.00    +0.047 C 
ATOM     27  C   UNL     1      26.973  -2.283  52.439  1.00  0.00    +0.064 C 
ENDBRANCH  11  20
TORSDOF 2
ENDMDL
MODEL 6
REMARK VINA RESULT:    -7.975      2.591      6.693
REMARK INTER + INTRA:          -9.890
REMARK INTER:                  -9.842
REMARK INTRA:                  -0.047
REMARK UNBOUND:                -0.982
REMARK SMILES Cc1cccc(C=C2C(=O)N(C)c3ncnc(-c4[nH]c(C)cc4C)c32)c1
REMARK SMILES IDX 7 1 8 2 9 3 10 4 11 5 12 6 13 7 14 8 15 9 16 10 17 11 25 12
REMARK SMILES IDX 6 13 2 14 3 15 26 16 4 17 5 18 1 19 18 20 19 21 23 22 20 23
REMARK SMILES IDX 22 24 24 26 21 27
REMARK H PARENT 19 25
ROOT
ATOM      1  C   UNL     1      25.153   1.155  52.524  1.00  0.00    +0.022 C 
ATOM      2  C   UNL     1      24.982   2.124  51.612  1.00  0.00    +0.054 C 
ATOM      3  C   UNL     1      26.070   2.909  50.916  1.00  0.00    +0.260 C 
ATOM      4  O   UNL     1      27.271   2.728  50.965  1.00  0.00    -0.269 OA
ATOM      5  N   UNL     1      25.394   3.894  50.214  1.00  0.00    -0.295 N 
ATOM      6  C   UNL     1      26.004   4.912  49.404  1.00  0.00    +0.155 C 
ATOM      7  C   UNL     1      24.009   3.786  50.374  1.00  0.00    +0.147 A 
ATOM      8  N   UNL     1      23.126   4.618  49.808  1.00  0.00    -0.218 NA
ATOM      9  C   UNL     1      21.852   4.326  50.089  1.00  0.00    +0.225 A 
ATOM     10  N   UNL     1      21.420   3.300  50.844  1.00  0.00    -0.234 NA
ATOM     11  C   UNL     1      22.365   2.474  51.355  1.00  0.00    +0.100 A 
ATOM     12  C   UNL     1      23.705   2.704  51.181  1.00  0.00    +0.058 A 
ENDROOT
BRANCH   1  13
ATOM     13  C   UNL     1      26.422   0.582  52.986  1.00  0.00    -0.025 A 
ATOM     14  C   UNL     1      27.983  -1.281  53.166  1.00  0.00    -0.051 A 
ATOM     15  C   UNL     1      28.798  -0.505  53.997  1.00  0.00    +0.003 A 
ATOM     16  C   UNL     1      26.785  -0.736  52.681  1.00  0.00    +0.011 A 
ATOM     17  C   UNL     1      28.437   0.803  54.317  1.00  0.00    +0.001 A 
ATOM     18  C   UNL     1      27.252   1.344  53.815  1.00  0.00    +0.008 A 
ATOM     19  C   UNL     1      28.355  -2.698  52.841  1.00  0.00    +0.044 C 
ENDBRANCH   1  13
BRANCH  11  20
ATOM     20  C   UNL     1      21.794   1.343  52.072  1.00  0.00    +0.068 A 
ATOM     21  N   UNL     1      22.294   0.958  53.296  1.00  0.00    -0.357 N 
ATOM     22  C   UNL     1      20.694   0.533  51.807  1.00  0.00    -0.024 A 
ATOM     23  C   UNL     1      21.618  -0.137  53.769  1.00  0.00    +0.012 A 
ATOM     24  C   UNL     1      20.616  -0.418  52.866  1.00  0.00    +0.026 A 
ATOM     25  H   UNL     1      23.054   1.429  53.768  1.00  0.00    +0.166 HD
ATOM     26  C   UNL     1      19.751   0.611  50.658  1.00  0.00    +0.047 C 
ATOM     27  C   UNL     1      21.981  -0.785  55.051  1.00  0.00    +0.064 C 
ENDBRANCH  11  20
TORSDOF 2
ENDMDL
MODEL 7
REMARK VINA RESULT:    -7.874      2.391      6.212
REMARK INTER + INTRA:          -9.777
REMARK INTER:                  -8.590
REMARK INTRA:                  -1.186
REMARK UNBOUND:                -0.982
REMARK SMILES Cc1cccc(C=C2C(=O)N(C)c3ncnc(-c4[nH]c(C)cc4C)c32)c1
REMARK SMILES IDX 7 1 8 2 9 3 10 4 11 5 12 6 13 7 14 8 15 9 16 10 17 11 25 12
REMARK SMILES IDX 6 13 2 14 3 15 26 16 4 17 5 18 1 19 18 20 19 21 23 22 20 23
REMARK SMILES IDX 22 24 24 26 21 27
REMARK H PARENT 19 25
ROOT
ATOM      1  C   UNL     1      23.093   1.425  51.633  1.00  0.00    +0.022 C 
ATOM      2  C   UNL     1      21.938   0.863  52.023  1.00  0.00    +0.054 C 
ATOM      3  C   UNL     1      21.733  -0.041  53.217  1.00  0.00    +0.260 C 
ATOM      4  O   UNL     1      22.532  -0.322  54.088  1.00  0.00    -0.269 OA
ATOM      5  N   UNL     1      20.429  -0.493  53.092  1.00  0.00    -0.295 N 
ATOM      6  C   UNL     1      19.771  -1.403  53.986  1.00  0.00    +0.155 C 
ATOM      7  C   UNL     1      19.797   0.057  51.973  1.00  0.00    +0.147 A 
ATOM      8  N   UNL     1      18.535  -0.220  51.619  1.00  0.00    -0.218 NA
ATOM      9  C   UNL     1      18.130   0.422  50.518  1.00  0.00    +0.225 A 
ATOM     10  N   UNL     1      18.856   1.291  49.793  1.00  0.00    -0.234 NA
ATOM     11  C   UNL     1      20.112   1.555  50.228  1.00  0.00    +0.100 A 
ATOM     12  C   UNL     1      20.656   0.917  51.312  1.00  0.00    +0.058 A 
ENDROOT
BRANCH   1  13
ATOM     13  C   UNL     1      24.389   1.360  52.317  1.00  0.00    -0.025 A 
ATOM     14  C   UNL     1      26.439   0.177  52.898  1.00  0.00    -0.051 A 
ATOM     15  C   UNL     1      26.797   1.233  53.744  1.00  0.00    +0.003 A 
ATOM     16  C   UNL     1      25.222   0.240  52.204  1.00  0.00    +0.011 A 
ATOM     17  C   UNL     1      25.966   2.345  53.874  1.00  0.00    +0.001 A 
ATOM     18  C   UNL     1      24.765   2.407  53.166  1.00  0.00    +0.008 A 
ATOM     19  C   UNL     1      27.318  -1.033  52.776  1.00  0.00    +0.044 C 
ENDBRANCH   1  13
BRANCH  11  20
ATOM     20  C   UNL     1      20.777   2.579  49.436  1.00  0.00    +0.068 A 
ATOM     21  N   UNL     1      20.981   2.404  48.085  1.00  0.00    -0.357 N 
ATOM     22  C   UNL     1      21.226   3.857  49.754  1.00  0.00    -0.024 A 
ATOM     23  C   UNL     1      21.641   3.482  47.554  1.00  0.00    +0.012 A 
ATOM     24  C   UNL     1      21.800   4.401  48.568  1.00  0.00    +0.026 A 
ATOM     25  H   UNL     1      20.679   1.587  47.570  1.00  0.00    +0.166 HD
ATOM     26  C   UNL     1      21.138   4.562  51.062  1.00  0.00    +0.047 C 
ATOM     27  C   UNL     1      22.026   3.535  46.124  1.00  0.00    +0.064 C 
ENDBRANCH  11  20
TORSDOF 2
ENDMDL
MODEL 8
REMARK VINA RESULT:    -7.625      3.499      7.478
REMARK INTER + INTRA:          -9.498
REMARK INTER:                  -8.240
REMARK INTRA:                  -1.258
REMARK UNBOUND:                -0.982
REMARK SMILES Cc1cccc(C=C2C(=O)N(C)c3ncnc(-c4[nH]c(C)cc4C)c32)c1
REMARK SMILES IDX 7 1 8 2 9 3 10 4 11 5 12 6 13 7 14 8 15 9 16 10 17 11 25 12
REMARK SMILES IDX 6 13 2 14 3 15 26 16 4 17 5 18 1 19 18 20 19 21 23 22 20 23
REMARK SMILES IDX 22 24 24 26 21 27
REMARK H PARENT 19 25
ROOT
ATOM      1  C   UNL     1      24.399   2.277  51.372  1.00  0.00    +0.022 C 
ATOM      2  C   UNL     1      24.773   3.185  50.458  1.00  0.00    +0.054 C 
ATOM      3  C   UNL     1      26.179   3.668  50.190  1.00  0.00    +0.260 C 
ATOM      4  O   UNL     1      27.217   3.246  50.660  1.00  0.00    -0.269 OA
ATOM      5  N   UNL     1      26.025   4.714  49.294  1.00  0.00    -0.295 N 
ATOM      6  C   UNL     1      27.086   5.515  48.752  1.00  0.00    +0.155 C 
ATOM      7  C   UNL     1      24.682   4.909  48.955  1.00  0.00    +0.147 A 
ATOM      8  N   UNL     1      24.257   5.860  48.113  1.00  0.00    -0.218 NA
ATOM      9  C   UNL     1      22.933   5.863  47.927  1.00  0.00    +0.225 A 
ATOM     10  N   UNL     1      22.050   5.013  48.481  1.00  0.00    -0.234 NA
ATOM     11  C   UNL     1      22.552   4.051  49.293  1.00  0.00    +0.100 A 
ATOM     12  C   UNL     1      23.885   3.982  49.603  1.00  0.00    +0.058 A 
ENDROOT
BRANCH   1  13
ATOM     13  C   UNL     1      25.270   1.490  52.252  1.00  0.00    -0.025 A 
ATOM     14  C   UNL     1      26.484  -0.556  52.780  1.00  0.00    -0.051 A 
ATOM     15  C   UNL     1      26.829  -0.019  54.025  1.00  0.00    +0.003 A 
ATOM     16  C   UNL     1      25.686   0.198  51.907  1.00  0.00    +0.011 A 
ATOM     17  C   UNL     1      26.407   1.262  54.381  1.00  0.00    +0.001 A 
ATOM     18  C   UNL     1      25.628   2.012  53.500  1.00  0.00    +0.008 A 
ATOM     19  C   UNL     1      26.914  -1.943  52.402  1.00  0.00    +0.044 C 
ENDBRANCH   1  13
BRANCH  11  20
ATOM     20  C   UNL     1      21.532   3.124  49.762  1.00  0.00    +0.068 A 
ATOM     21  N   UNL     1      20.585   3.522  50.680  1.00  0.00    -0.357 N 
ATOM     22  C   UNL     1      21.220   1.820  49.394  1.00  0.00    -0.024 A 
ATOM     23  C   UNL     1      19.747   2.483  50.988  1.00  0.00    +0.012 A 
ATOM     24  C   UNL     1      20.116   1.415  50.200  1.00  0.00    +0.026 A 
ATOM     25  H   UNL     1      20.529   4.457  51.063  1.00  0.00    +0.166 HD
ATOM     26  C   UNL     1      21.880   0.974  48.362  1.00  0.00    +0.047 C 
ATOM     27  C   UNL     1      18.659   2.626  51.984  1.00  0.00    +0.064 C 
ENDBRANCH  11  20
TORSDOF 2
ENDMDL
MODEL 9
REMARK VINA RESULT:    -7.327      3.271      5.453
REMARK INTER + INTRA:          -9.166
REMARK INTER:                  -8.126
REMARK INTRA:                  -1.039
REMARK UNBOUND:                -0.982
REMARK SMILES Cc1cccc(C=C2C(=O)N(C)c3ncnc(-c4[nH]c(C)cc4C)c32)c1
REMARK SMILES IDX 7 1 8 2 9 3 10 4 11 5 12 6 13 7 14 8 15 9 16 10 17 11 25 12
REMARK SMILES IDX 6 13 2 14 3 15 26 16 4 17 5 18 1 19 18 20 19 21 23 22 20 23
REMARK SMILES IDX 22 24 24 26 21 27
REMARK H PARENT 19 25
ROOT
ATOM      1  C   UNL     1      19.959   2.030  51.000  1.00  0.00    +0.022 C 
ATOM      2  C   UNL     1      20.651   1.139  51.726  1.00  0.00    +0.054 C 
ATOM      3  C   UNL     1      20.078   0.092  52.652  1.00  0.00    +0.260 C 
ATOM      4  O   UNL     1      18.911  -0.206  52.813  1.00  0.00    -0.269 OA
ATOM      5  N   UNL     1      21.182  -0.450  53.291  1.00  0.00    -0.295 N 
ATOM      6  C   UNL     1      21.148  -1.481  54.290  1.00  0.00    +0.155 C 
ATOM      7  C   UNL     1      22.374   0.124  52.839  1.00  0.00    +0.147 A 
ATOM      8  N   UNL     1      23.585  -0.215  53.299  1.00  0.00    -0.218 NA
ATOM      9  C   UNL     1      24.589   0.455  52.722  1.00  0.00    +0.225 A 
ATOM     10  N   UNL     1      24.472   1.382  51.754  1.00  0.00    -0.234 NA
ATOM     11  C   UNL     1      23.220   1.650  51.308  1.00  0.00    +0.100 A 
ATOM     12  C   UNL     1      22.110   1.066  51.861  1.00  0.00    +0.058 A 
ENDROOT
BRANCH   1  13
ATOM     13  C   UNL     1      18.501   2.135  50.874  1.00  0.00    -0.025 A 
ATOM     14  C   UNL     1      16.358   3.058  51.577  1.00  0.00    -0.051 A 
ATOM     15  C   UNL     1      15.707   2.204  50.681  1.00  0.00    +0.003 A 
ATOM     16  C   UNL     1      17.756   3.002  51.682  1.00  0.00    +0.011 A 
ATOM     17  C   UNL     1      16.441   1.328  49.882  1.00  0.00    +0.001 A 
ATOM     18  C   UNL     1      17.832   1.291  49.980  1.00  0.00    +0.008 A 
ATOM     19  C   UNL     1      15.571   3.984  52.457  1.00  0.00    +0.044 C 
ENDBRANCH   1  13
BRANCH  11  20
ATOM     20  C   UNL     1      23.209   2.589  50.196  1.00  0.00    +0.068 A 
ATOM     21  N   UNL     1      23.869   3.795  50.284  1.00  0.00    -0.357 N 
ATOM     22  C   UNL     1      22.698   2.497  48.905  1.00  0.00    -0.024 A 
ATOM     23  C   UNL     1      23.704   4.519  49.132  1.00  0.00    +0.012 A 
ATOM     24  C   UNL     1      22.985   3.734  48.258  1.00  0.00    +0.026 A 
ATOM     25  H   UNL     1      24.399   4.089  51.094  1.00  0.00    +0.166 HD
ATOM     26  C   UNL     1      21.988   1.350  48.278  1.00  0.00    +0.047 C 
ATOM     27  C   UNL     1      24.277   5.877  48.976  1.00  0.00    +0.064 C 
ENDBRANCH  11  20
TORSDOF 2
ENDMDL
