REMARK SMILES CCN(CC/N=N/Nc1ccc2ncnc(-c3cccc(Cl)c3)c2c1)c1ccc(O)cc1
REMARK SMILES IDX 5 1 4 2 3 3 2 4 1 5 26 6 27 7 32 8 28 9 31 10 29 11 30 12
REMARK SMILES IDX 6 14 7 15 8 16 9 18 10 19 25 20 11 21 24 22 12 23 16 24
REMARK SMILES IDX 13 25 15 26 14 27 17 28 18 29 23 30 19 31 21 32 20 33 22 34
REMARK H PARENT 30 13 8 17
ROOT
ATOM      1  C   UNL     1      -2.257   0.207   1.265  1.00  0.00    +0.190 C 
ENDROOT
BRANCH   1   2
ATOM      2  C   UNL     1      -3.097  -0.927   0.659  1.00  0.00    +0.142 C 
BRANCH   2   3
ATOM      3  N   UNL     1      -4.542  -0.706   0.845  1.00  0.00    -0.370 N 
BRANCH   3   4
ATOM      4  C   UNL     1      -5.324  -1.873   1.285  1.00  0.00    +0.113 C 
ATOM      5  C   UNL     1      -5.339  -1.955   2.806  1.00  0.00    +0.027 C 
ENDBRANCH   3   4
BRANCH   3   6
ATOM      6  C   UNL     1      -5.215   0.325   0.190  1.00  0.00    +0.037 A 
ATOM      7  C   UNL     1      -6.465   0.774   0.653  1.00  0.00    +0.030 A 
ATOM      8  C   UNL     1      -4.687   0.989  -0.931  1.00  0.00    +0.030 A 
ATOM      9  C   UNL     1      -7.157   1.818   0.028  1.00  0.00    +0.048 A 
ATOM     10  C   UNL     1      -5.373   2.034  -1.567  1.00  0.00    +0.048 A 
ATOM     11  C   UNL     1      -6.606   2.440  -1.078  1.00  0.00    +0.115 A 
BRANCH  11  12
ATOM     12  O   UNL     1      -7.309   3.450  -1.662  1.00  0.00    -0.508 OA
ATOM     13  H   UNL     1      -6.826   3.747  -2.450  1.00  0.00    +0.293 HD
ENDBRANCH  11  12
ENDBRANCH   3   6
ENDBRANCH   2   3
ENDBRANCH   1   2
BRANCH   1  14
ATOM     14  N   UNL     1      -0.832  -0.167   1.271  1.00  0.00    -0.169 NA
ATOM     15  N   UNL     1      -0.300  -0.020   0.155  1.00  0.00    -0.075 NA
BRANCH  15  16
ATOM     16  N   UNL     1       0.980  -0.398   0.316  1.00  0.00    -0.260 N 
ATOM     17  H   UNL     1       1.314  -0.387   1.273  1.00  0.00    +0.192 HD
BRANCH  16  18
ATOM     18  C   UNL     1       1.917  -0.101  -0.686  1.00  0.00    +0.059 A 
ATOM     19  C   UNL     1       1.549   0.200  -1.997  1.00  0.00    +0.030 A 
ATOM     20  C   UNL     1       3.283  -0.215  -0.408  1.00  0.00    +0.040 A 
ATOM     21  C   UNL     1       2.521   0.404  -2.985  1.00  0.00    +0.031 A 
ATOM     22  C   UNL     1       4.274   0.013  -1.403  1.00  0.00    +0.029 A 
ATOM     23  C   UNL     1       3.877   0.311  -2.712  1.00  0.00    +0.074 A 
ATOM     24  C   UNL     1       5.667  -0.046  -1.210  1.00  0.00    +0.082 A 
ATOM     25  N   UNL     1       4.745   0.500  -3.712  1.00  0.00    -0.236 NA
ATOM     26  N   UNL     1       6.558   0.125  -2.213  1.00  0.00    -0.236 NA
ATOM     27  C   UNL     1       6.045   0.391  -3.416  1.00  0.00    +0.223 A 
BRANCH  24  28
ATOM     28  C   UNL     1       6.298  -0.279   0.101  1.00  0.00    +0.002 A 
ATOM     29  C   UNL     1       7.102  -1.412   0.317  1.00  0.00    +0.010 A 
ATOM     30  C   UNL     1       6.138   0.634   1.159  1.00  0.00    +0.030 A 
ATOM     31  C   UNL     1       7.705  -1.644   1.556  1.00  0.00    +0.002 A 
ATOM     32  C   UNL     1       6.741   0.398   2.395  1.00  0.00    +0.041 A 
ATOM     33  C   UNL     1       7.520  -0.739   2.599  1.00  0.00    +0.020 A 
ATOM     34 Cl   UNL     1       6.515   1.523   3.679  1.00  0.00    -0.084 Cl
ENDBRANCH  24  28
ENDBRANCH  16  18
ENDBRANCH  15  16
ENDBRANCH   1  14
TORSDOF 9
