MODEL 1
REMARK VINA RESULT:    -8.364      0.000      0.000
REMARK INTER + INTRA:         -13.766
REMARK INTER:                 -11.787
REMARK INTRA:                  -1.979
REMARK UNBOUND:                -1.979
REMARK SMILES Cc1cc(C)c(N(C)CC/N=N/Nc2ccc3ncnc(-c4cccc(Cl)c4)c3c2)[nH]1
REMARK SMILES IDX 11 1 12 2 10 3 9 4 7 5 8 6 6 7 2 8 3 9 31 10 4 11 1 12 5 14
REMARK SMILES IDX 13 15 14 17 15 18 30 19 16 20 29 21 17 22 21 23 18 24 20 25
REMARK SMILES IDX 19 26 22 27 23 28 28 29 24 30 26 31 25 32 27 33
REMARK H PARENT 31 13 13 16
ROOT
ATOM      1  N   UNL     1      23.904   7.141  51.555  1.00  0.00    -0.169 NA
ATOM      2  N   UNL     1      23.477   6.009  51.273  1.00  0.00    -0.075 NA
ENDROOT
BRANCH   1   3
ATOM      3  C   UNL     1      23.816   8.085  50.431  1.00  0.00    +0.190 C 
BRANCH   3   4
ATOM      4  C   UNL     1      25.206   8.426  49.878  1.00  0.00    +0.143 C 
BRANCH   4   5
ATOM      5  N   UNL     1      25.560   7.647  48.671  1.00  0.00    -0.359 N 
ATOM      6  C   UNL     1      24.693   7.859  47.524  1.00  0.00    +0.145 C 
BRANCH   5   7
ATOM      7  C   UNL     1      26.311   6.500  48.765  1.00  0.00    +0.108 A 
ATOM      8  C   UNL     1      26.663   4.343  49.373  1.00  0.00    +0.014 A 
ATOM      9  C   UNL     1      27.766   4.762  48.667  1.00  0.00    +0.028 A 
ATOM     10  N   UNL     1      25.824   5.418  49.468  1.00  0.00    -0.346 N 
ATOM     11  C   UNL     1      27.572   6.128  48.306  1.00  0.00    -0.009 A 
ATOM     12  C   UNL     1      26.323   3.036  49.968  1.00  0.00    +0.064 C 
ATOM     13  H   UNL     1      24.954   5.413  49.974  1.00  0.00    +0.168 HD
ATOM     14  C   UNL     1      28.569   6.922  47.535  1.00  0.00    +0.048 C 
ENDBRANCH   5   7
ENDBRANCH   4   5
ENDBRANCH   3   4
ENDBRANCH   1   3
BRANCH   2  15
ATOM     15  N   UNL     1      23.794   5.199  52.323  1.00  0.00    -0.260 N 
ATOM     16  H   UNL     1      23.576   5.682  53.187  1.00  0.00    +0.192 HD
BRANCH  15  17
ATOM     17  C   UNL     1      23.084   3.964  52.392  1.00  0.00    +0.059 A 
ATOM     18  C   UNL     1      21.703   3.886  52.238  1.00  0.00    +0.030 A 
ATOM     19  C   UNL     1      23.782   2.807  52.744  1.00  0.00    +0.040 A 
ATOM     20  C   UNL     1      21.051   2.658  52.369  1.00  0.00    +0.031 A 
ATOM     21  C   UNL     1      23.118   1.560  52.865  1.00  0.00    +0.029 A 
ATOM     22  C   UNL     1      21.735   1.490  52.667  1.00  0.00    +0.074 A 
ATOM     23  C   UNL     1      23.732   0.332  53.153  1.00  0.00    +0.082 A 
ATOM     24  N   UNL     1      21.046   0.349  52.750  1.00  0.00    -0.236 NA
ATOM     25  N   UNL     1      23.055  -0.834  53.219  1.00  0.00    -0.236 NA
ATOM     26  C   UNL     1      21.740  -0.762  53.013  1.00  0.00    +0.223 A 
BRANCH  23  27
ATOM     27  C   UNL     1      25.176   0.178  53.378  1.00  0.00    +0.002 A 
ATOM     28  C   UNL     1      26.037  -0.064  52.294  1.00  0.00    +0.010 A 
ATOM     29  C   UNL     1      25.725   0.235  54.670  1.00  0.00    +0.030 A 
ATOM     30  C   UNL     1      27.409  -0.238  52.487  1.00  0.00    +0.002 A 
ATOM     31  C   UNL     1      27.098   0.059  54.858  1.00  0.00    +0.041 A 
ATOM     32  C   UNL     1      27.940  -0.177  53.773  1.00  0.00    +0.020 A 
ATOM     33 Cl   UNL     1      27.759   0.127  56.448  1.00  0.00    -0.084 Cl
ENDBRANCH  23  27
ENDBRANCH  15  17
ENDBRANCH   2  15
TORSDOF 7
ENDMDL
MODEL 2
REMARK VINA RESULT:    -8.202      1.919      2.759
REMARK INTER + INTRA:         -13.537
REMARK INTER:                 -12.129
REMARK INTRA:                  -1.408
REMARK UNBOUND:                -1.979
REMARK SMILES Cc1cc(C)c(N(C)CC/N=N/Nc2ccc3ncnc(-c4cccc(Cl)c4)c3c2)[nH]1
REMARK SMILES IDX 11 1 12 2 10 3 9 4 7 5 8 6 6 7 2 8 3 9 31 10 4 11 1 12 5 14
REMARK SMILES IDX 13 15 14 17 15 18 30 19 16 20 29 21 17 22 21 23 18 24 20 25
REMARK SMILES IDX 19 26 22 27 23 28 28 29 24 30 26 31 25 32 27 33
REMARK H PARENT 31 13 13 16
ROOT
ATOM      1  N   UNL     1      22.784   4.021  48.683  1.00  0.00    -0.169 NA
ATOM      2  N   UNL     1      22.350   3.449  49.696  1.00  0.00    -0.075 NA
ENDROOT
BRANCH   1   3
ATOM      3  C   UNL     1      22.332   5.416  48.572  1.00  0.00    +0.190 C 
BRANCH   3   4
ATOM      4  C   UNL     1      23.519   6.387  48.534  1.00  0.00    +0.143 C 
BRANCH   4   5
ATOM      5  N   UNL     1      24.567   6.065  49.527  1.00  0.00    -0.359 N 
ATOM      6  C   UNL     1      24.353   6.622  50.851  1.00  0.00    +0.145 C 
BRANCH   5   7
ATOM      7  C   UNL     1      25.831   5.700  49.128  1.00  0.00    +0.108 A 
ATOM      8  C   UNL     1      27.874   6.098  48.226  1.00  0.00    +0.014 A 
ATOM      9  C   UNL     1      27.863   4.799  48.678  1.00  0.00    +0.028 A 
ATOM     10  N   UNL     1      26.626   6.606  48.457  1.00  0.00    -0.346 N 
ATOM     11  C   UNL     1      26.572   4.525  49.217  1.00  0.00    -0.009 A 
ATOM     12  C   UNL     1      28.938   6.905  47.599  1.00  0.00    +0.064 C 
ATOM     13  H   UNL     1      26.332   7.529  48.185  1.00  0.00    +0.168 HD
ATOM     14  C   UNL     1      26.189   3.208  49.797  1.00  0.00    +0.048 C 
ENDBRANCH   5   7
ENDBRANCH   4   5
ENDBRANCH   3   4
ENDBRANCH   1   3
BRANCH   2  15
ATOM     15  N   UNL     1      22.680   2.132  49.573  1.00  0.00    -0.260 N 
ATOM     16  H   UNL     1      23.681   2.056  49.441  1.00  0.00    +0.192 HD
BRANCH  15  17
ATOM     17  C   UNL     1      22.384   1.308  50.700  1.00  0.00    +0.059 A 
ATOM     18  C   UNL     1      21.092   0.881  50.995  1.00  0.00    +0.030 A 
ATOM     19  C   UNL     1      23.406   1.018  51.605  1.00  0.00    +0.040 A 
ATOM     20  C   UNL     1      20.850   0.122  52.141  1.00  0.00    +0.031 A 
ATOM     21  C   UNL     1      23.158   0.236  52.763  1.00  0.00    +0.029 A 
ATOM     22  C   UNL     1      21.863  -0.221  53.024  1.00  0.00    +0.074 A 
ATOM     23  C   UNL     1      24.121  -0.163  53.700  1.00  0.00    +0.082 A 
ATOM     24  N   UNL     1      21.558  -0.973  54.086  1.00  0.00    -0.236 NA
ATOM     25  N   UNL     1      23.836  -0.940  54.766  1.00  0.00    -0.236 NA
ATOM     26  C   UNL     1      22.561  -1.305  54.902  1.00  0.00    +0.223 A 
BRANCH  23  27
ATOM     27  C   UNL     1      25.545   0.192  53.606  1.00  0.00    +0.002 A 
ATOM     28  C   UNL     1      25.938   1.541  53.644  1.00  0.00    +0.010 A 
ATOM     29  C   UNL     1      26.535  -0.791  53.447  1.00  0.00    +0.030 A 
ATOM     30  C   UNL     1      27.283   1.904  53.532  1.00  0.00    +0.002 A 
ATOM     31  C   UNL     1      27.877  -0.423  53.335  1.00  0.00    +0.041 A 
ATOM     32  C   UNL     1      28.254   0.918  53.377  1.00  0.00    +0.020 A 
ATOM     33 Cl   UNL     1      29.083  -1.638  53.135  1.00  0.00    -0.084 Cl
ENDBRANCH  23  27
ENDBRANCH  15  17
ENDBRANCH   2  15
TORSDOF 7
ENDMDL
MODEL 3
REMARK VINA RESULT:    -8.177      1.788      2.145
REMARK INTER + INTRA:         -13.503
REMARK INTER:                 -11.484
REMARK INTRA:                  -2.019
REMARK UNBOUND:                -1.979
REMARK SMILES Cc1cc(C)c(N(C)CC/N=N/Nc2ccc3ncnc(-c4cccc(Cl)c4)c3c2)[nH]1
REMARK SMILES IDX 11 1 12 2 10 3 9 4 7 5 8 6 6 7 2 8 3 9 31 10 4 11 1 12 5 14
REMARK SMILES IDX 13 15 14 17 15 18 30 19 16 20 29 21 17 22 21 23 18 24 20 25
REMARK SMILES IDX 19 26 22 27 23 28 28 29 24 30 26 31 25 32 27 33
REMARK H PARENT 31 13 13 16
ROOT
ATOM      1  N   UNL     1      22.297   4.227  49.165  1.00  0.00    -0.169 NA
ATOM      2  N   UNL     1      22.463   3.691  50.274  1.00  0.00    -0.075 NA
ENDROOT
BRANCH   1   3
ATOM      3  C   UNL     1      22.034   5.671  49.257  1.00  0.00    +0.190 C 
BRANCH   3   4
ATOM      4  C   UNL     1      23.141   6.485  48.574  1.00  0.00    +0.143 C 
BRANCH   4   5
ATOM      5  N   UNL     1      24.338   6.670  49.424  1.00  0.00    -0.359 N 
ATOM      6  C   UNL     1      24.558   8.028  49.891  1.00  0.00    +0.145 C 
BRANCH   5   7
ATOM      7  C   UNL     1      25.383   5.780  49.376  1.00  0.00    +0.108 A 
ATOM      8  C   UNL     1      26.390   3.798  49.828  1.00  0.00    +0.014 A 
ATOM      9  C   UNL     1      27.242   4.526  49.031  1.00  0.00    +0.028 A 
ATOM     10  N   UNL     1      25.302   4.590  50.070  1.00  0.00    -0.346 N 
ATOM     11  C   UNL     1      26.635   5.789  48.766  1.00  0.00    -0.009 A 
ATOM     12  C   UNL     1      26.499   2.436  50.387  1.00  0.00    +0.064 C 
ATOM     13  H   UNL     1      24.534   4.330  50.664  1.00  0.00    +0.168 HD
ATOM     14  C   UNL     1      27.274   6.847  47.936  1.00  0.00    +0.048 C 
ENDBRANCH   5   7
ENDBRANCH   4   5
ENDBRANCH   3   4
ENDBRANCH   1   3
BRANCH   2  15
ATOM     15  N   UNL     1      22.500   2.346  50.056  1.00  0.00    -0.260 N 
ATOM     16  H   UNL     1      23.431   2.090  49.748  1.00  0.00    +0.192 HD
BRANCH  15  17
ATOM     17  C   UNL     1      22.239   1.525  51.193  1.00  0.00    +0.059 A 
ATOM     18  C   UNL     1      20.951   1.292  51.667  1.00  0.00    +0.030 A 
ATOM     19  C   UNL     1      23.319   1.033  51.928  1.00  0.00    +0.040 A 
ATOM     20  C   UNL     1      20.755   0.524  52.817  1.00  0.00    +0.031 A 
ATOM     21  C   UNL     1      23.116   0.244  53.089  1.00  0.00    +0.029 A 
ATOM     22  C   UNL     1      21.815  -0.016  53.530  1.00  0.00    +0.074 A 
ATOM     23  C   UNL     1      24.126  -0.347  53.862  1.00  0.00    +0.082 A 
ATOM     24  N   UNL     1      21.547  -0.763  54.605  1.00  0.00    -0.236 NA
ATOM     25  N   UNL     1      23.874  -1.121  54.938  1.00  0.00    -0.236 NA
ATOM     26  C   UNL     1      22.589  -1.288  55.253  1.00  0.00    +0.223 A 
BRANCH  23  27
ATOM     27  C   UNL     1      25.560  -0.216  53.565  1.00  0.00    +0.002 A 
ATOM     28  C   UNL     1      26.275  -1.309  53.047  1.00  0.00    +0.010 A 
ATOM     29  C   UNL     1      26.253   0.980  53.819  1.00  0.00    +0.030 A 
ATOM     30  C   UNL     1      27.643  -1.215  52.780  1.00  0.00    +0.002 A 
ATOM     31  C   UNL     1      27.620   1.068  53.551  1.00  0.00    +0.041 A 
ATOM     32  C   UNL     1      28.317  -0.023  53.034  1.00  0.00    +0.020 A 
ATOM     33 Cl   UNL     1      28.461   2.539  53.870  1.00  0.00    -0.084 Cl
ENDBRANCH  23  27
ENDBRANCH  15  17
ENDBRANCH   2  15
TORSDOF 7
ENDMDL
MODEL 4
REMARK VINA RESULT:    -8.160      2.011      2.929
REMARK INTER + INTRA:         -13.479
REMARK INTER:                 -11.887
REMARK INTRA:                  -1.592
REMARK UNBOUND:                -1.979
REMARK SMILES Cc1cc(C)c(N(C)CC/N=N/Nc2ccc3ncnc(-c4cccc(Cl)c4)c3c2)[nH]1
REMARK SMILES IDX 11 1 12 2 10 3 9 4 7 5 8 6 6 7 2 8 3 9 31 10 4 11 1 12 5 14
REMARK SMILES IDX 13 15 14 17 15 18 30 19 16 20 29 21 17 22 21 23 18 24 20 25
REMARK SMILES IDX 19 26 22 27 23 28 28 29 24 30 26 31 25 32 27 33
REMARK H PARENT 31 13 13 16
ROOT
ATOM      1  N   UNL     1      21.985   3.565  51.293  1.00  0.00    -0.169 NA
ATOM      2  N   UNL     1      21.610   2.711  50.472  1.00  0.00    -0.075 NA
ENDROOT
BRANCH   1   3
ATOM      3  C   UNL     1      21.189   4.800  51.244  1.00  0.00    +0.190 C 
BRANCH   3   4
ATOM      4  C   UNL     1      22.068   6.019  50.935  1.00  0.00    +0.143 C 
BRANCH   4   5
ATOM      5  N   UNL     1      22.704   5.956  49.600  1.00  0.00    -0.359 N 
ATOM      6  C   UNL     1      21.784   5.797  48.487  1.00  0.00    +0.145 C 
BRANCH   5   7
ATOM      7  C   UNL     1      24.022   5.598  49.462  1.00  0.00    +0.108 A 
ATOM      8  C   UNL     1      25.793   4.206  49.738  1.00  0.00    +0.014 A 
ATOM      9  C   UNL     1      26.215   5.273  48.981  1.00  0.00    +0.028 A 
ATOM     10  N   UNL     1      24.486   4.446  50.063  1.00  0.00    -0.346 N 
ATOM     11  C   UNL     1      25.120   6.174  48.827  1.00  0.00    -0.009 A 
ATOM     12  C   UNL     1      26.494   2.988  50.187  1.00  0.00    +0.064 C 
ATOM     13  H   UNL     1      23.931   3.849  50.652  1.00  0.00    +0.168 HD
ATOM     14  C   UNL     1      25.210   7.451  48.068  1.00  0.00    +0.048 C 
ENDBRANCH   5   7
ENDBRANCH   4   5
ENDBRANCH   3   4
ENDBRANCH   1   3
BRANCH   2  15
ATOM     15  N   UNL     1      22.540   1.715  50.490  1.00  0.00    -0.260 N 
ATOM     16  H   UNL     1      23.464   2.130  50.468  1.00  0.00    +0.192 HD
BRANCH  15  17
ATOM     17  C   UNL     1      22.531   0.876  51.644  1.00  0.00    +0.059 A 
ATOM     18  C   UNL     1      21.366   0.292  52.134  1.00  0.00    +0.030 A 
ATOM     19  C   UNL     1      23.709   0.730  52.377  1.00  0.00    +0.040 A 
ATOM     20  C   UNL     1      21.404  -0.477  53.299  1.00  0.00    +0.031 A 
ATOM     21  C   UNL     1      23.747  -0.061  53.554  1.00  0.00    +0.029 A 
ATOM     22  C   UNL     1      22.577  -0.675  54.011  1.00  0.00    +0.074 A 
ATOM     23  C   UNL     1      24.887  -0.321  54.328  1.00  0.00    +0.082 A 
ATOM     24  N   UNL     1      22.539  -1.446  55.102  1.00  0.00    -0.236 NA
ATOM     25  N   UNL     1      24.872  -1.113  55.420  1.00  0.00    -0.236 NA
ATOM     26  C   UNL     1      23.691  -1.636  55.751  1.00  0.00    +0.223 A 
BRANCH  23  27
ATOM     27  C   UNL     1      26.221   0.212  54.016  1.00  0.00    +0.002 A 
ATOM     28  C   UNL     1      26.414   1.598  53.888  1.00  0.00    +0.010 A 
ATOM     29  C   UNL     1      27.319  -0.640  53.808  1.00  0.00    +0.030 A 
ATOM     30  C   UNL     1      27.668   2.126  53.569  1.00  0.00    +0.002 A 
ATOM     31  C   UNL     1      28.569  -0.108  53.488  1.00  0.00    +0.041 A 
ATOM     32  C   UNL     1      28.747   1.269  53.368  1.00  0.00    +0.020 A 
ATOM     33 Cl   UNL     1      29.907  -1.163  53.231  1.00  0.00    -0.084 Cl
ENDBRANCH  23  27
ENDBRANCH  15  17
ENDBRANCH   2  15
TORSDOF 7
ENDMDL
MODEL 5
REMARK VINA RESULT:    -8.151      2.841      5.126
REMARK INTER + INTRA:         -13.465
REMARK INTER:                 -10.977
REMARK INTRA:                  -2.489
REMARK UNBOUND:                -1.979
REMARK SMILES Cc1cc(C)c(N(C)CC/N=N/Nc2ccc3ncnc(-c4cccc(Cl)c4)c3c2)[nH]1
REMARK SMILES IDX 11 1 12 2 10 3 9 4 7 5 8 6 6 7 2 8 3 9 31 10 4 11 1 12 5 14
REMARK SMILES IDX 13 15 14 17 15 18 30 19 16 20 29 21 17 22 21 23 18 24 20 25
REMARK SMILES IDX 19 26 22 27 23 28 28 29 24 30 26 31 25 32 27 33
REMARK H PARENT 31 13 13 16
ROOT
ATOM      1  N   UNL     1      26.877   2.766  50.847  1.00  0.00    -0.169 NA
ATOM      2  N   UNL     1      25.913   2.129  51.303  1.00  0.00    -0.075 NA
ENDROOT
BRANCH   1   3
ATOM      3  C   UNL     1      26.730   3.087  49.419  1.00  0.00    +0.190 C 
BRANCH   3   4
ATOM      4  C   UNL     1      27.000   4.573  49.150  1.00  0.00    +0.143 C 
BRANCH   4   5
ATOM      5  N   UNL     1      25.773   5.399  49.155  1.00  0.00    -0.359 N 
ATOM      6  C   UNL     1      25.968   6.795  48.800  1.00  0.00    +0.145 C 
BRANCH   5   7
ATOM      7  C   UNL     1      24.668   5.020  49.877  1.00  0.00    +0.108 A 
ATOM      8  C   UNL     1      23.503   4.703  51.798  1.00  0.00    +0.014 A 
ATOM      9  C   UNL     1      22.665   4.406  50.749  1.00  0.00    +0.028 A 
ATOM     10  N   UNL     1      24.718   5.017  51.256  1.00  0.00    -0.346 N 
ATOM     11  C   UNL     1      23.395   4.569  49.535  1.00  0.00    -0.009 A 
ATOM     12  C   UNL     1      23.275   4.717  53.256  1.00  0.00    +0.064 C 
ATOM     13  H   UNL     1      25.538   5.234  51.795  1.00  0.00    +0.168 HD
ATOM     14  C   UNL     1      22.809   4.327  48.187  1.00  0.00    +0.048 C 
ENDBRANCH   5   7
ENDBRANCH   4   5
ENDBRANCH   3   4
ENDBRANCH   1   3
BRANCH   2  15
ATOM     15  N   UNL     1      26.264   1.735  52.560  1.00  0.00    -0.260 N 
ATOM     16  H   UNL     1      26.363   2.557  53.145  1.00  0.00    +0.192 HD
BRANCH  15  17
ATOM     17  C   UNL     1      25.325   0.901  53.236  1.00  0.00    +0.059 A 
ATOM     18  C   UNL     1      25.692   0.053  54.277  1.00  0.00    +0.030 A 
ATOM     19  C   UNL     1      24.014   0.845  52.761  1.00  0.00    +0.040 A 
ATOM     20  C   UNL     1      24.743  -0.782  54.869  1.00  0.00    +0.031 A 
ATOM     21  C   UNL     1      23.049   0.003  53.371  1.00  0.00    +0.029 A 
ATOM     22  C   UNL     1      23.423  -0.813  54.444  1.00  0.00    +0.074 A 
ATOM     23  C   UNL     1      21.696  -0.084  53.013  1.00  0.00    +0.082 A 
ATOM     24  N   UNL     1      22.566  -1.620  55.077  1.00  0.00    -0.236 NA
ATOM     25  N   UNL     1      20.812  -0.876  53.654  1.00  0.00    -0.236 NA
ATOM     26  C   UNL     1      21.299  -1.606  54.658  1.00  0.00    +0.223 A 
BRANCH  23  27
ATOM     27  C   UNL     1      21.091   0.700  51.926  1.00  0.00    +0.002 A 
ATOM     28  C   UNL     1      21.425   0.426  50.589  1.00  0.00    +0.010 A 
ATOM     29  C   UNL     1      20.198   1.752  52.192  1.00  0.00    +0.030 A 
ATOM     30  C   UNL     1      20.880   1.173  49.542  1.00  0.00    +0.002 A 
ATOM     31  C   UNL     1      19.657   2.496  51.142  1.00  0.00    +0.041 A 
ATOM     32  C   UNL     1      19.994   2.211  49.820  1.00  0.00    +0.020 A 
ATOM     33 Cl   UNL     1      18.566   3.787  51.481  1.00  0.00    -0.084 Cl
ENDBRANCH  23  27
ENDBRANCH  15  17
ENDBRANCH   2  15
TORSDOF 7
ENDMDL
MODEL 6
REMARK VINA RESULT:    -8.147      1.458      2.019
REMARK INTER + INTRA:         -13.461
REMARK INTER:                 -10.997
REMARK INTRA:                  -2.464
REMARK UNBOUND:                -1.979
REMARK SMILES Cc1cc(C)c(N(C)CC/N=N/Nc2ccc3ncnc(-c4cccc(Cl)c4)c3c2)[nH]1
REMARK SMILES IDX 11 1 12 2 10 3 9 4 7 5 8 6 6 7 2 8 3 9 31 10 4 11 1 12 5 14
REMARK SMILES IDX 13 15 14 17 15 18 30 19 16 20 29 21 17 22 21 23 18 24 20 25
REMARK SMILES IDX 19 26 22 27 23 28 28 29 24 30 26 31 25 32 27 33
REMARK H PARENT 31 13 13 16
ROOT
ATOM      1  N   UNL     1      24.282   7.111  51.290  1.00  0.00    -0.169 NA
ATOM      2  N   UNL     1      23.340   6.395  51.671  1.00  0.00    -0.075 NA
ENDROOT
BRANCH   1   3
ATOM      3  C   UNL     1      23.874   8.120  50.302  1.00  0.00    +0.190 C 
BRANCH   3   4
ATOM      4  C   UNL     1      22.863   7.546  49.300  1.00  0.00    +0.143 C 
BRANCH   4   5
ATOM      5  N   UNL     1      23.480   6.644  48.302  1.00  0.00    -0.359 N 
ATOM      6  C   UNL     1      23.269   7.025  46.916  1.00  0.00    +0.145 C 
BRANCH   5   7
ATOM      7  C   UNL     1      23.793   5.345  48.620  1.00  0.00    +0.108 A 
ATOM      8  C   UNL     1      25.167   3.714  49.393  1.00  0.00    +0.014 A 
ATOM      9  C   UNL     1      23.948   3.139  49.123  1.00  0.00    +0.028 A 
ATOM     10  N   UNL     1      25.071   5.029  49.033  1.00  0.00    -0.346 N 
ATOM     11  C   UNL     1      23.083   4.147  48.605  1.00  0.00    -0.009 A 
ATOM     12  C   UNL     1      26.412   3.150  49.951  1.00  0.00    +0.064 C 
ATOM     13  H   UNL     1      25.832   5.686  49.079  1.00  0.00    +0.168 HD
ATOM     14  C   UNL     1      21.676   3.888  48.193  1.00  0.00    +0.048 C 
ENDBRANCH   5   7
ENDBRANCH   4   5
ENDBRANCH   3   4
ENDBRANCH   1   3
BRANCH   2  15
ATOM     15  N   UNL     1      23.886   5.397  52.421  1.00  0.00    -0.260 N 
ATOM     16  H   UNL     1      23.927   5.698  53.387  1.00  0.00    +0.192 HD
BRANCH  15  17
ATOM     17  C   UNL     1      23.164   4.166  52.439  1.00  0.00    +0.059 A 
ATOM     18  C   UNL     1      21.784   4.107  52.263  1.00  0.00    +0.030 A 
ATOM     19  C   UNL     1      23.846   2.992  52.763  1.00  0.00    +0.040 A 
ATOM     20  C   UNL     1      21.119   2.882  52.345  1.00  0.00    +0.031 A 
ATOM     21  C   UNL     1      23.169   1.748  52.834  1.00  0.00    +0.029 A 
ATOM     22  C   UNL     1      21.789   1.698  52.614  1.00  0.00    +0.074 A 
ATOM     23  C   UNL     1      23.767   0.506  53.090  1.00  0.00    +0.082 A 
ATOM     24  N   UNL     1      21.088   0.561  52.649  1.00  0.00    -0.236 NA
ATOM     25  N   UNL     1      23.079  -0.655  53.109  1.00  0.00    -0.236 NA
ATOM     26  C   UNL     1      21.768  -0.563  52.886  1.00  0.00    +0.223 A 
BRANCH  23  27
ATOM     27  C   UNL     1      25.207   0.330  53.331  1.00  0.00    +0.002 A 
ATOM     28  C   UNL     1      26.085   0.148  52.250  1.00  0.00    +0.010 A 
ATOM     29  C   UNL     1      25.733   0.307  54.633  1.00  0.00    +0.030 A 
ATOM     30  C   UNL     1      27.453  -0.044  52.455  1.00  0.00    +0.002 A 
ATOM     31  C   UNL     1      27.101   0.113  54.834  1.00  0.00    +0.041 A 
ATOM     32  C   UNL     1      27.961  -0.062  53.752  1.00  0.00    +0.020 A 
ATOM     33 Cl   UNL     1      27.735   0.082  56.437  1.00  0.00    -0.084 Cl
ENDBRANCH  23  27
ENDBRANCH  15  17
ENDBRANCH   2  15
TORSDOF 7
ENDMDL
MODEL 7
REMARK VINA RESULT:    -7.879      2.303      6.376
REMARK INTER + INTRA:         -13.082
REMARK INTER:                 -11.295
REMARK INTRA:                  -1.788
REMARK UNBOUND:                -1.979
REMARK SMILES Cc1cc(C)c(N(C)CC/N=N/Nc2ccc3ncnc(-c4cccc(Cl)c4)c3c2)[nH]1
REMARK SMILES IDX 11 1 12 2 10 3 9 4 7 5 8 6 6 7 2 8 3 9 31 10 4 11 1 12 5 14
REMARK SMILES IDX 13 15 14 17 15 18 30 19 16 20 29 21 17 22 21 23 18 24 20 25
REMARK SMILES IDX 19 26 22 27 23 28 28 29 24 30 26 31 25 32 27 33
REMARK H PARENT 31 13 13 16
ROOT
ATOM      1  N   UNL     1      19.632   2.978  52.192  1.00  0.00    -0.169 NA
ATOM      2  N   UNL     1      20.096   3.998  51.654  1.00  0.00    -0.075 NA
ENDROOT
BRANCH   1   3
ATOM      3  C   UNL     1      18.284   2.638  51.713  1.00  0.00    +0.190 C 
BRANCH   3   4
ATOM      4  C   UNL     1      18.310   1.409  50.795  1.00  0.00    +0.143 C 
BRANCH   4   5
ATOM      5  N   UNL     1      18.870   0.205  51.449  1.00  0.00    -0.359 N 
ATOM      6  C   UNL     1      17.894  -0.654  52.098  1.00  0.00    +0.145 C 
BRANCH   5   7
ATOM      7  C   UNL     1      20.191   0.155  51.825  1.00  0.00    +0.108 A 
ATOM      8  C   UNL     1      21.878  -0.287  53.276  1.00  0.00    +0.014 A 
ATOM      9  C   UNL     1      22.443   0.110  52.087  1.00  0.00    +0.028 A 
ATOM     10  N   UNL     1      20.523  -0.201  53.116  1.00  0.00    -0.346 N 
ATOM     11  C   UNL     1      21.393   0.423  51.175  1.00  0.00    -0.009 A 
ATOM     12  C   UNL     1      22.484  -0.735  54.545  1.00  0.00    +0.064 C 
ATOM     13  H   UNL     1      19.854  -0.390  53.843  1.00  0.00    +0.168 HD
ATOM     14  C   UNL     1      21.629   0.897  49.783  1.00  0.00    +0.048 C 
ENDBRANCH   5   7
ENDBRANCH   4   5
ENDBRANCH   3   4
ENDBRANCH   1   3
BRANCH   2  15
ATOM     15  N   UNL     1      21.245   4.303  52.322  1.00  0.00    -0.260 N 
ATOM     16  H   UNL     1      21.454   3.555  52.972  1.00  0.00    +0.192 HD
BRANCH  15  17
ATOM     17  C   UNL     1      22.414   4.441  51.515  1.00  0.00    +0.059 A 
ATOM     18  C   UNL     1      22.496   5.353  50.467  1.00  0.00    +0.030 A 
ATOM     19  C   UNL     1      23.470   3.549  51.707  1.00  0.00    +0.040 A 
ATOM     20  C   UNL     1      23.644   5.409  49.675  1.00  0.00    +0.031 A 
ATOM     21  C   UNL     1      24.640   3.616  50.908  1.00  0.00    +0.029 A 
ATOM     22  C   UNL     1      24.724   4.566  49.885  1.00  0.00    +0.074 A 
ATOM     23  C   UNL     1      25.779   2.812  51.056  1.00  0.00    +0.082 A 
ATOM     24  N   UNL     1      25.799   4.698  49.102  1.00  0.00    -0.236 NA
ATOM     25  N   UNL     1      26.881   2.944  50.290  1.00  0.00    -0.236 NA
ATOM     26  C   UNL     1      26.831   3.887  49.347  1.00  0.00    +0.223 A 
BRANCH  23  27
ATOM     27  C   UNL     1      25.907   1.764  52.080  1.00  0.00    +0.002 A 
ATOM     28  C   UNL     1      25.753   2.085  53.439  1.00  0.00    +0.010 A 
ATOM     29  C   UNL     1      26.215   0.437  51.734  1.00  0.00    +0.030 A 
ATOM     30  C   UNL     1      25.894   1.111  54.431  1.00  0.00    +0.002 A 
ATOM     31  C   UNL     1      26.356  -0.532  52.729  1.00  0.00    +0.041 A 
ATOM     32  C   UNL     1      26.197  -0.201  54.073  1.00  0.00    +0.020 A 
ATOM     33 Cl   UNL     1      26.738  -2.155  52.293  1.00  0.00    -0.084 Cl
ENDBRANCH  23  27
ENDBRANCH  15  17
ENDBRANCH   2  15
TORSDOF 7
ENDMDL
MODEL 8
REMARK VINA RESULT:    -7.721      3.095      5.720
REMARK INTER + INTRA:         -12.859
REMARK INTER:                 -10.597
REMARK INTRA:                  -2.262
REMARK UNBOUND:                -1.979
REMARK SMILES Cc1cc(C)c(N(C)CC/N=N/Nc2ccc3ncnc(-c4cccc(Cl)c4)c3c2)[nH]1
REMARK SMILES IDX 11 1 12 2 10 3 9 4 7 5 8 6 6 7 2 8 3 9 31 10 4 11 1 12 5 14
REMARK SMILES IDX 13 15 14 17 15 18 30 19 16 20 29 21 17 22 21 23 18 24 20 25
REMARK SMILES IDX 19 26 22 27 23 28 28 29 24 30 26 31 25 32 27 33
REMARK H PARENT 31 13 13 16
ROOT
ATOM      1  N   UNL     1      19.176   1.034  52.094  1.00  0.00    -0.169 NA
ATOM      2  N   UNL     1      20.116   1.506  52.755  1.00  0.00    -0.075 NA
ENDROOT
BRANCH   1   3
ATOM      3  C   UNL     1      18.603   1.995  51.140  1.00  0.00    +0.190 C 
BRANCH   3   4
ATOM      4  C   UNL     1      18.859   3.442  51.583  1.00  0.00    +0.143 C 
BRANCH   4   5
ATOM      5  N   UNL     1      19.687   4.206  50.625  1.00  0.00    -0.359 N 
ATOM      6  C   UNL     1      19.508   3.844  49.229  1.00  0.00    +0.145 C 
BRANCH   5   7
ATOM      7  C   UNL     1      20.839   4.836  51.031  1.00  0.00    +0.108 A 
ATOM      8  C   UNL     1      22.726   5.021  52.277  1.00  0.00    +0.014 A 
ATOM      9  C   UNL     1      22.702   6.077  51.397  1.00  0.00    +0.028 A 
ATOM     10  N   UNL     1      21.571   4.317  52.079  1.00  0.00    -0.346 N 
ATOM     11  C   UNL     1      21.504   5.992  50.629  1.00  0.00    -0.009 A 
ATOM     12  C   UNL     1      23.723   4.611  53.285  1.00  0.00    +0.064 C 
ATOM     13  H   UNL     1      21.299   3.513  52.619  1.00  0.00    +0.168 HD
ATOM     14  C   UNL     1      21.134   6.976  49.574  1.00  0.00    +0.048 C 
ENDBRANCH   5   7
ENDBRANCH   4   5
ENDBRANCH   3   4
ENDBRANCH   1   3
BRANCH   2  15
ATOM     15  N   UNL     1      20.416   0.590  53.718  1.00  0.00    -0.260 N 
ATOM     16  H   UNL     1      19.888  -0.257  53.541  1.00  0.00    +0.192 HD
BRANCH  15  17
ATOM     17  C   UNL     1      21.781   0.177  53.781  1.00  0.00    +0.059 A 
ATOM     18  C   UNL     1      22.245  -0.726  54.732  1.00  0.00    +0.030 A 
ATOM     19  C   UNL     1      22.706   0.791  52.935  1.00  0.00    +0.040 A 
ATOM     20  C   UNL     1      23.601  -1.054  54.784  1.00  0.00    +0.031 A 
ATOM     21  C   UNL     1      24.082   0.447  52.983  1.00  0.00    +0.029 A 
ATOM     22  C   UNL     1      24.527  -0.494  53.917  1.00  0.00    +0.074 A 
ATOM     23  C   UNL     1      25.081   0.956  52.141  1.00  0.00    +0.082 A 
ATOM     24  N   UNL     1      25.804  -0.877  54.010  1.00  0.00    -0.236 NA
ATOM     25  N   UNL     1      26.371   0.565  52.206  1.00  0.00    -0.236 NA
ATOM     26  C   UNL     1      26.664  -0.337  53.144  1.00  0.00    +0.223 A 
BRANCH  23  27
ATOM     27  C   UNL     1      24.827   1.941  51.080  1.00  0.00    +0.002 A 
ATOM     28  C   UNL     1      23.589   1.957  50.416  1.00  0.00    +0.010 A 
ATOM     29  C   UNL     1      25.812   2.860  50.684  1.00  0.00    +0.030 A 
ATOM     30  C   UNL     1      23.333   2.868  49.388  1.00  0.00    +0.002 A 
ATOM     31  C   UNL     1      25.553   3.768  49.655  1.00  0.00    +0.041 A 
ATOM     32  C   UNL     1      24.319   3.775  49.007  1.00  0.00    +0.020 A 
ATOM     33 Cl   UNL     1      26.771   4.888  49.175  1.00  0.00    -0.084 Cl
ENDBRANCH  23  27
ENDBRANCH  15  17
ENDBRANCH   2  15
TORSDOF 7
ENDMDL
MODEL 9
REMARK VINA RESULT:    -7.682      2.729      4.417
REMARK INTER + INTRA:         -12.805
REMARK INTER:                 -10.430
REMARK INTRA:                  -2.374
REMARK UNBOUND:                -1.979
REMARK SMILES Cc1cc(C)c(N(C)CC/N=N/Nc2ccc3ncnc(-c4cccc(Cl)c4)c3c2)[nH]1
REMARK SMILES IDX 11 1 12 2 10 3 9 4 7 5 8 6 6 7 2 8 3 9 31 10 4 11 1 12 5 14
REMARK SMILES IDX 13 15 14 17 15 18 30 19 16 20 29 21 17 22 21 23 18 24 20 25
REMARK SMILES IDX 19 26 22 27 23 28 28 29 24 30 26 31 25 32 27 33
REMARK H PARENT 31 13 13 16
ROOT
ATOM      1  N   UNL     1      22.023   3.429  47.351  1.00  0.00    -0.169 NA
ATOM      2  N   UNL     1      22.467   2.904  48.386  1.00  0.00    -0.075 NA
ENDROOT
BRANCH   1   3
ATOM      3  C   UNL     1      22.252   4.881  47.298  1.00  0.00    +0.190 C 
BRANCH   3   4
ATOM      4  C   UNL     1      23.064   5.363  48.508  1.00  0.00    +0.143 C 
BRANCH   4   5
ATOM      5  N   UNL     1      22.238   6.038  49.532  1.00  0.00    -0.359 N 
ATOM      6  C   UNL     1      22.628   7.405  49.834  1.00  0.00    +0.145 C 
BRANCH   5   7
ATOM      7  C   UNL     1      21.506   5.313  50.441  1.00  0.00    +0.108 A 
ATOM      8  C   UNL     1      19.622   4.294  51.186  1.00  0.00    +0.014 A 
ATOM      9  C   UNL     1      20.623   4.030  52.090  1.00  0.00    +0.028 A 
ATOM     10  N   UNL     1      20.158   5.112  50.231  1.00  0.00    -0.346 N 
ATOM     11  C   UNL     1      21.807   4.693  51.652  1.00  0.00    -0.009 A 
ATOM     12  C   UNL     1      18.213   3.857  51.133  1.00  0.00    +0.064 C 
ATOM     13  H   UNL     1      19.638   5.502  49.463  1.00  0.00    +0.168 HD
ATOM     14  C   UNL     1      23.099   4.638  52.390  1.00  0.00    +0.048 C 
ENDBRANCH   5   7
ENDBRANCH   4   5
ENDBRANCH   3   4
ENDBRANCH   1   3
BRANCH   2  15
ATOM     15  N   UNL     1      22.020   1.617  48.395  1.00  0.00    -0.260 N 
ATOM     16  H   UNL     1      22.793   1.000  48.173  1.00  0.00    +0.192 HD
BRANCH  15  17
ATOM     17  C   UNL     1      21.505   1.145  49.639  1.00  0.00    +0.059 A 
ATOM     18  C   UNL     1      20.146   0.936  49.855  1.00  0.00    +0.030 A 
ATOM     19  C   UNL     1      22.381   1.001  50.716  1.00  0.00    +0.040 A 
ATOM     20  C   UNL     1      19.690   0.525  51.109  1.00  0.00    +0.031 A 
ATOM     21  C   UNL     1      21.917   0.573  51.986  1.00  0.00    +0.029 A 
ATOM     22  C   UNL     1      20.553   0.327  52.176  1.00  0.00    +0.074 A 
ATOM     23  C   UNL     1      22.718   0.339  53.113  1.00  0.00    +0.082 A 
ATOM     24  N   UNL     1      20.046  -0.093  53.339  1.00  0.00    -0.236 NA
ATOM     25  N   UNL     1      22.226  -0.105  54.289  1.00  0.00    -0.236 NA
ATOM     26  C   UNL     1      20.907  -0.298  54.338  1.00  0.00    +0.223 A 
BRANCH  23  27
ATOM     27  C   UNL     1      24.177   0.518  53.126  1.00  0.00    +0.002 A 
ATOM     28  C   UNL     1      24.727   1.807  53.238  1.00  0.00    +0.010 A 
ATOM     29  C   UNL     1      25.050  -0.574  52.996  1.00  0.00    +0.030 A 
ATOM     30  C   UNL     1      26.110   2.004  53.229  1.00  0.00    +0.002 A 
ATOM     31  C   UNL     1      26.431  -0.372  52.986  1.00  0.00    +0.041 A 
ATOM     32  C   UNL     1      26.963   0.911  53.102  1.00  0.00    +0.020 A 
ATOM     33 Cl   UNL     1      27.492  -1.720  52.821  1.00  0.00    -0.084 Cl
ENDBRANCH  23  27
ENDBRANCH  15  17
ENDBRANCH   2  15
TORSDOF 7
ENDMDL
