REMARK SMILES Cc1[nH]c(C=C(N)C(C#N)=C(C#N)C#N)c(C)c1N1CCN(C)CC1
REMARK SMILES IDX 1 1 2 2 3 3 4 4 16 5 17 6 18 7 19 9 20 10 25 11 21 12 24 13
REMARK SMILES IDX 22 14 23 15 5 16 6 17 7 18 8 21 9 22 11 23 10 24 12 25 14 26
REMARK SMILES IDX 13 27 15 28
REMARK H PARENT 3 8 7 19 7 20
ROOT
ATOM      1  C   UNL     1      -0.091  -2.970  -1.169  1.00  0.00    +0.066 C 
ATOM      2  C   UNL     1       0.306  -1.954  -0.159  1.00  0.00    +0.036 A 
ATOM      3  N   UNL     1       1.525  -2.049   0.465  1.00  0.00    -0.357 N 
ATOM      4  C   UNL     1       1.731  -0.955   1.267  1.00  0.00    +0.045 A 
ATOM      5  C   UNL     1       0.575  -0.191   1.251  1.00  0.00    -0.002 A 
ATOM      6  C   UNL     1       0.311   1.018   2.082  1.00  0.00    +0.049 C 
ATOM      7  C   UNL     1      -0.315  -0.814   0.316  1.00  0.00    +0.061 A 
ATOM      8  H   UNL     1       2.206  -2.776   0.285  1.00  0.00    +0.166 HD
ENDROOT
BRANCH   7   9
ATOM      9  N   UNL     1      -1.547  -0.366  -0.045  1.00  0.00    -0.367 N 
ATOM     10  C   UNL     1      -1.815   1.065  -0.270  1.00  0.00    +0.132 C 
ATOM     11  C   UNL     1      -2.650  -1.280  -0.378  1.00  0.00    +0.132 C 
ATOM     12  C   UNL     1      -2.929   1.274  -1.322  1.00  0.00    +0.105 C 
ATOM     13  C   UNL     1      -4.014  -0.584  -0.167  1.00  0.00    +0.105 C 
ATOM     14  N   UNL     1      -4.215   0.606  -1.026  1.00  0.00    -0.303 NA
ATOM     15  C   UNL     1      -5.175   1.521  -0.416  1.00  0.00    +0.105 C 
ENDBRANCH   7   9
BRANCH   4  16
ATOM     16  C   UNL     1       2.987  -0.848   1.911  1.00  0.00    +0.053 C 
ATOM     17  C   UNL     1       3.905   0.085   1.576  1.00  0.00    +0.054 C 
BRANCH  17  18
ATOM     18  N   UNL     1       5.136   0.145   2.208  1.00  0.00    -0.398 N 
ATOM     19  H   UNL     1       5.168  -0.363   3.092  1.00  0.00    +0.156 HD
ATOM     20  H   UNL     1       5.509   1.087   2.322  1.00  0.00    +0.156 HD
ENDBRANCH  17  18
BRANCH  17  21
ATOM     21  C   UNL     1       3.681   1.047   0.484  1.00  0.00    +0.103 C 
ATOM     22  C   UNL     1       3.384   2.385   0.890  1.00  0.00    +0.103 C 
ATOM     23  C   UNL     1       3.743   0.711  -0.825  1.00  0.00    +0.149 C 
ATOM     24  N   UNL     1       3.161   3.472   1.229  1.00  0.00    -0.192 NA
ATOM     25  C   UNL     1       3.501   1.667  -1.851  1.00  0.00    +0.112 C 
ATOM     26  C   UNL     1       4.055  -0.618  -1.233  1.00  0.00    +0.112 C 
ATOM     27  N   UNL     1       3.313   2.452  -2.684  1.00  0.00    -0.192 NA
ATOM     28  N   UNL     1       4.292  -1.709  -1.550  1.00  0.00    -0.192 NA
ENDBRANCH  17  21
ENDBRANCH   4  16
TORSDOF 4
