REMARK SMILES CCN(CC/N=N/Nc1ccc2ncnc(-c3cccc(Cl)c3)c2c1)c1cccc(C)c1
REMARK SMILES IDX 6 1 7 2 5 3 4 4 3 5 2 6 1 7 26 8 27 9 32 10 28 11 30 12
REMARK SMILES IDX 29 13 31 14 8 15 9 17 10 18 25 19 11 20 24 21 12 22 16 23
REMARK SMILES IDX 13 24 15 25 14 26 17 27 18 28 23 29 19 30 21 31 20 32 22 33
REMARK H PARENT 8 16
ROOT
ATOM      1  N   UNL     1       0.709   0.339   0.364  1.00  0.00    -0.169 NA
ATOM      2  N   UNL     1      -0.035  -0.646   0.515  1.00  0.00    -0.075 NA
ENDROOT
BRANCH   1   3
ATOM      3  C   UNL     1       2.081   0.073   0.831  1.00  0.00    +0.190 C 
BRANCH   3   4
ATOM      4  C   UNL     1       2.910  -0.524  -0.312  1.00  0.00    +0.142 C 
BRANCH   4   5
ATOM      5  N   UNL     1       4.299  -0.782   0.107  1.00  0.00    -0.370 N 
BRANCH   5   6
ATOM      6  C   UNL     1       4.569  -2.137   0.606  1.00  0.00    +0.113 C 
ATOM      7  C   UNL     1       5.053  -3.046  -0.514  1.00  0.00    +0.027 C 
ENDBRANCH   5   6
BRANCH   5   8
ATOM      8  C   UNL     1       5.288   0.194   0.030  1.00  0.00    +0.037 A 
ATOM      9  C   UNL     1       6.632  -0.074   0.343  1.00  0.00    +0.026 A 
ATOM     10  C   UNL     1       5.012   1.518  -0.363  1.00  0.00    +0.029 A 
ATOM     11  C   UNL     1       7.631   0.907   0.277  1.00  0.00    +0.002 A 
ATOM     12  C   UNL     1       6.003   2.516  -0.450  1.00  0.00    -0.049 A 
ATOM     13  C   UNL     1       7.317   2.201  -0.113  1.00  0.00    +0.003 A 
ATOM     14  C   UNL     1       5.630   3.914  -0.847  1.00  0.00    +0.044 C 
ENDBRANCH   5   8
ENDBRANCH   4   5
ENDBRANCH   3   4
ENDBRANCH   1   3
BRANCH   2  15
ATOM     15  N   UNL     1      -1.236  -0.272   0.038  1.00  0.00    -0.260 N 
ATOM     16  H   UNL     1      -1.362   0.731  -0.051  1.00  0.00    +0.192 HD
BRANCH  15  17
ATOM     17  C   UNL     1      -2.376  -1.003   0.411  1.00  0.00    +0.059 A 
ATOM     18  C   UNL     1      -2.307  -2.287   0.951  1.00  0.00    +0.030 A 
ATOM     19  C   UNL     1      -3.646  -0.488   0.128  1.00  0.00    +0.040 A 
ATOM     20  C   UNL     1      -3.473  -3.001   1.252  1.00  0.00    +0.031 A 
ATOM     21  C   UNL     1      -4.833  -1.215   0.422  1.00  0.00    +0.029 A 
ATOM     22  C   UNL     1      -4.736  -2.484   1.005  1.00  0.00    +0.074 A 
ATOM     23  C   UNL     1      -6.148  -0.774   0.189  1.00  0.00    +0.082 A 
ATOM     24  N   UNL     1      -5.803  -3.221   1.330  1.00  0.00    -0.236 NA
ATOM     25  N   UNL     1      -7.239  -1.498   0.526  1.00  0.00    -0.236 NA
ATOM     26  C   UNL     1      -7.006  -2.691   1.078  1.00  0.00    +0.223 A 
BRANCH  23  27
ATOM     27  C   UNL     1      -6.474   0.515  -0.442  1.00  0.00    +0.002 A 
ATOM     28  C   UNL     1      -7.121   1.524   0.291  1.00  0.00    +0.010 A 
ATOM     29  C   UNL     1      -6.171   0.760  -1.792  1.00  0.00    +0.030 A 
ATOM     30  C   UNL     1      -7.435   2.752  -0.297  1.00  0.00    +0.002 A 
ATOM     31  C   UNL     1      -6.487   1.987  -2.376  1.00  0.00    +0.041 A 
ATOM     32  C   UNL     1      -7.114   2.985  -1.633  1.00  0.00    +0.020 A 
ATOM     33 Cl   UNL     1      -6.095   2.271  -4.027  1.00  0.00    -0.084 Cl
ENDBRANCH  23  27
ENDBRANCH  15  17
ENDBRANCH   2  15
TORSDOF 8
