MODEL 1
REMARK VINA RESULT:    -7.753      0.000      0.000
REMARK INTER + INTRA:         -11.003
REMARK INTER:                  -9.566
REMARK INTRA:                  -1.437
REMARK UNBOUND:                -1.437
REMARK SMILES Cc1cccc(N(C(=O)c2ccccc2)c2[nH]c(C)cc2C)c1
REMARK SMILES IDX 7 1 6 2 2 3 3 4 23 5 4 6 5 7 1 8 8 9 9 10 10 11 11 12 15 13
REMARK SMILES IDX 12 14 14 15 13 16 16 17 17 18 21 19 18 20 20 21 22 23 19 24
REMARK H PARENT 17 22
ROOT
ATOM      1  N   UNL     1      24.200   3.246  51.183  1.00  0.00    -0.262 N 
ENDROOT
BRANCH   1   2
ATOM      2  C   UNL     1      23.188   2.568  50.413  1.00  0.00    +0.051 A 
ATOM      3  C   UNL     1      21.191   1.143  50.333  1.00  0.00    -0.049 A 
ATOM      4  C   UNL     1      21.201   1.203  48.938  1.00  0.00    +0.003 A 
ATOM      5  C   UNL     1      22.174   1.839  51.057  1.00  0.00    +0.030 A 
ATOM      6  C   UNL     1      22.183   1.935  48.277  1.00  0.00    +0.002 A 
ATOM      7  C   UNL     1      23.164   2.611  49.007  1.00  0.00    +0.027 A 
ATOM      8  C   UNL     1      20.107   0.399  51.054  1.00  0.00    +0.044 C 
ENDBRANCH   1   2
BRANCH   1   9
ATOM      9  C   UNL     1      24.568   2.767  52.458  1.00  0.00    +0.263 C 
ATOM     10  O   UNL     1      24.316   3.347  53.518  1.00  0.00    -0.268 OA
BRANCH   9  11
ATOM     11  C   UNL     1      25.230   1.434  52.585  1.00  0.00    +0.040 A 
ATOM     12  C   UNL     1      26.359   1.093  51.831  1.00  0.00    +0.014 A 
ATOM     13  C   UNL     1      24.638   0.472  53.416  1.00  0.00    +0.014 A 
ATOM     14  C   UNL     1      26.920  -0.182  51.948  1.00  0.00    +0.001 A 
ATOM     15  C   UNL     1      25.199  -0.800  53.528  1.00  0.00    +0.001 A 
ATOM     16  C   UNL     1      26.343  -1.124  52.799  1.00  0.00    +0.000 A 
ENDBRANCH   9  11
ENDBRANCH   1   9
BRANCH   1  17
ATOM     17  C   UNL     1      24.688   4.467  50.698  1.00  0.00    +0.120 A 
ATOM     18  N   UNL     1      24.059   5.653  51.023  1.00  0.00    -0.345 N 
ATOM     19  C   UNL     1      25.748   4.787  49.856  1.00  0.00    -0.008 A 
ATOM     20  C   UNL     1      24.656   6.709  50.385  1.00  0.00    +0.014 A 
ATOM     21  C   UNL     1      25.705   6.199  49.654  1.00  0.00    +0.028 A 
ATOM     22  H   UNL     1      23.248   5.714  51.623  1.00  0.00    +0.168 HD
ATOM     23  C   UNL     1      26.795   3.893  49.291  1.00  0.00    +0.048 C 
ATOM     24  C   UNL     1      24.162   8.099  50.540  1.00  0.00    +0.064 C 
ENDBRANCH   1  17
TORSDOF 4
ENDMDL
MODEL 2
REMARK VINA RESULT:    -7.613      1.746      2.867
REMARK INTER + INTRA:         -10.829
REMARK INTER:                 -10.029
REMARK INTRA:                  -0.800
REMARK UNBOUND:                -1.437
REMARK SMILES Cc1cccc(N(C(=O)c2ccccc2)c2[nH]c(C)cc2C)c1
REMARK SMILES IDX 7 1 6 2 2 3 3 4 23 5 4 6 5 7 1 8 8 9 9 10 10 11 11 12 15 13
REMARK SMILES IDX 12 14 14 15 13 16 16 17 17 18 21 19 18 20 20 21 22 23 19 24
REMARK H PARENT 17 22
ROOT
ATOM      1  N   UNL     1      25.052   2.103  52.186  1.00  0.00    -0.262 N 
ENDROOT
BRANCH   1   2
ATOM      2  C   UNL     1      23.791   1.408  52.111  1.00  0.00    +0.051 A 
ATOM      3  C   UNL     1      22.069   0.029  53.185  1.00  0.00    -0.049 A 
ATOM      4  C   UNL     1      21.336   0.013  51.995  1.00  0.00    +0.003 A 
ATOM      5  C   UNL     1      23.279   0.740  53.236  1.00  0.00    +0.030 A 
ATOM      6  C   UNL     1      21.811   0.685  50.873  1.00  0.00    +0.002 A 
ATOM      7  C   UNL     1      23.025   1.375  50.931  1.00  0.00    +0.027 A 
ATOM      8  C   UNL     1      21.539  -0.649  54.413  1.00  0.00    +0.044 C 
ENDBRANCH   1   2
BRANCH   1   9
ATOM      9  C   UNL     1      25.963   1.820  53.225  1.00  0.00    +0.263 C 
ATOM     10  O   UNL     1      26.028   2.451  54.283  1.00  0.00    -0.268 OA
BRANCH   9  11
ATOM     11  C   UNL     1      26.865   0.634  53.116  1.00  0.00    +0.040 A 
ATOM     12  C   UNL     1      26.394  -0.620  52.706  1.00  0.00    +0.014 A 
ATOM     13  C   UNL     1      28.198   0.770  53.528  1.00  0.00    +0.014 A 
ATOM     14  C   UNL     1      27.263  -1.713  52.660  1.00  0.00    +0.001 A 
ATOM     15  C   UNL     1      29.062  -0.324  53.483  1.00  0.00    +0.001 A 
ATOM     16  C   UNL     1      28.596  -1.563  53.043  1.00  0.00    +0.000 A 
ENDBRANCH   9  11
ENDBRANCH   1   9
BRANCH   1  17
ATOM     17  C   UNL     1      25.272   3.164  51.296  1.00  0.00    +0.120 A 
ATOM     18  N   UNL     1      26.343   3.138  50.425  1.00  0.00    -0.345 N 
ATOM     19  C   UNL     1      24.610   4.369  51.090  1.00  0.00    -0.008 A 
ATOM     20  C   UNL     1      26.409   4.300  49.702  1.00  0.00    +0.014 A 
ATOM     21  C   UNL     1      25.346   5.081  50.097  1.00  0.00    +0.028 A 
ATOM     22  H   UNL     1      27.002   2.374  50.364  1.00  0.00    +0.168 HD
ATOM     23  C   UNL     1      23.344   4.857  51.703  1.00  0.00    +0.048 C 
ATOM     24  C   UNL     1      27.482   4.547  48.708  1.00  0.00    +0.064 C 
ENDBRANCH   1  17
TORSDOF 4
ENDMDL
MODEL 3
REMARK VINA RESULT:    -7.502      1.817      6.066
REMARK INTER + INTRA:         -10.693
REMARK INTER:                  -9.642
REMARK INTRA:                  -1.051
REMARK UNBOUND:                -1.437
REMARK SMILES Cc1cccc(N(C(=O)c2ccccc2)c2[nH]c(C)cc2C)c1
REMARK SMILES IDX 7 1 6 2 2 3 3 4 23 5 4 6 5 7 1 8 8 9 9 10 10 11 11 12 15 13
REMARK SMILES IDX 12 14 14 15 13 16 16 17 17 18 21 19 18 20 20 21 22 23 19 24
REMARK H PARENT 17 22
ROOT
ATOM      1  N   UNL     1      24.350   1.739  52.567  1.00  0.00    -0.262 N 
ENDROOT
BRANCH   1   2
ATOM      2  C   UNL     1      25.543   1.056  53.002  1.00  0.00    +0.051 A 
ATOM      3  C   UNL     1      26.967  -0.943  52.968  1.00  0.00    -0.049 A 
ATOM      4  C   UNL     1      27.856  -0.326  53.852  1.00  0.00    +0.003 A 
ATOM      5  C   UNL     1      25.829  -0.240  52.539  1.00  0.00    +0.030 A 
ATOM      6  C   UNL     1      27.606   0.964  54.308  1.00  0.00    +0.002 A 
ATOM      7  C   UNL     1      26.463   1.648  53.887  1.00  0.00    +0.027 A 
ATOM      8  C   UNL     1      27.256  -2.313  52.432  1.00  0.00    +0.044 C 
ENDBRANCH   1   2
BRANCH   1   9
ATOM      9  C   UNL     1      24.356   3.137  52.378  1.00  0.00    +0.263 C 
ATOM     10  O   UNL     1      23.899   3.950  53.185  1.00  0.00    -0.268 OA
BRANCH   9  11
ATOM     11  C   UNL     1      25.027   3.717  51.176  1.00  0.00    +0.040 A 
ATOM     12  C   UNL     1      26.084   3.064  50.530  1.00  0.00    +0.014 A 
ATOM     13  C   UNL     1      24.643   4.997  50.751  1.00  0.00    +0.014 A 
ATOM     14  C   UNL     1      26.713   3.664  49.436  1.00  0.00    +0.001 A 
ATOM     15  C   UNL     1      25.275   5.594  49.659  1.00  0.00    +0.001 A 
ATOM     16  C   UNL     1      26.305   4.924  48.999  1.00  0.00    +0.000 A 
ENDBRANCH   9  11
ENDBRANCH   1   9
BRANCH   1  17
ATOM     17  C   UNL     1      23.161   1.001  52.491  1.00  0.00    +0.120 A 
ATOM     18  N   UNL     1      22.726   0.257  53.570  1.00  0.00    -0.345 N 
ATOM     19  C   UNL     1      22.242   0.803  51.465  1.00  0.00    -0.008 A 
ATOM     20  C   UNL     1      21.588  -0.438  53.254  1.00  0.00    +0.014 A 
ATOM     21  C   UNL     1      21.268  -0.118  51.954  1.00  0.00    +0.028 A 
ATOM     22  H   UNL     1      23.211   0.213  54.456  1.00  0.00    +0.168 HD
ATOM     23  C   UNL     1      22.191   1.441  50.121  1.00  0.00    +0.048 C 
ATOM     24  C   UNL     1      20.922  -1.338  54.227  1.00  0.00    +0.064 C 
ENDBRANCH   1  17
TORSDOF 4
ENDMDL
MODEL 4
REMARK VINA RESULT:    -7.498      0.642      1.875
REMARK INTER + INTRA:         -10.688
REMARK INTER:                  -9.470
REMARK INTRA:                  -1.218
REMARK UNBOUND:                -1.437
REMARK SMILES Cc1cccc(N(C(=O)c2ccccc2)c2[nH]c(C)cc2C)c1
REMARK SMILES IDX 7 1 6 2 2 3 3 4 23 5 4 6 5 7 1 8 8 9 9 10 10 11 11 12 15 13
REMARK SMILES IDX 12 14 14 15 13 16 16 17 17 18 21 19 18 20 20 21 22 23 19 24
REMARK H PARENT 17 22
ROOT
ATOM      1  N   UNL     1      24.235   3.370  50.940  1.00  0.00    -0.262 N 
ENDROOT
BRANCH   1   2
ATOM      2  C   UNL     1      23.274   2.748  50.063  1.00  0.00    +0.051 A 
ATOM      3  C   UNL     1      22.095   2.701  47.911  1.00  0.00    -0.049 A 
ATOM      4  C   UNL     1      21.381   1.574  48.325  1.00  0.00    +0.003 A 
ATOM      5  C   UNL     1      23.047   3.266  48.776  1.00  0.00    +0.030 A 
ATOM      6  C   UNL     1      21.603   1.030  49.586  1.00  0.00    +0.002 A 
ATOM      7  C   UNL     1      22.540   1.610  50.445  1.00  0.00    +0.027 A 
ATOM      8  C   UNL     1      21.899   3.262  46.534  1.00  0.00    +0.044 C 
ENDBRANCH   1   2
BRANCH   1   9
ATOM      9  C   UNL     1      24.427   2.882  52.249  1.00  0.00    +0.263 C 
ATOM     10  O   UNL     1      24.053   3.464  53.270  1.00  0.00    -0.268 OA
BRANCH   9  11
ATOM     11  C   UNL     1      25.041   1.536  52.454  1.00  0.00    +0.040 A 
ATOM     12  C   UNL     1      24.509   0.609  53.359  1.00  0.00    +0.014 A 
ATOM     13  C   UNL     1      26.237   1.240  51.786  1.00  0.00    +0.014 A 
ATOM     14  C   UNL     1      25.141  -0.622  53.553  1.00  0.00    +0.001 A 
ATOM     15  C   UNL     1      26.867   0.010  51.983  1.00  0.00    +0.001 A 
ATOM     16  C   UNL     1      26.315  -0.922  52.862  1.00  0.00    +0.000 A 
ENDBRANCH   9  11
ENDBRANCH   1   9
BRANCH   1  17
ATOM     17  C   UNL     1      24.849   4.554  50.508  1.00  0.00    +0.120 A 
ATOM     18  N   UNL     1      24.333   5.783  50.869  1.00  0.00    -0.345 N 
ATOM     19  C   UNL     1      25.951   4.799  49.696  1.00  0.00    -0.008 A 
ATOM     20  C   UNL     1      25.042   6.798  50.281  1.00  0.00    +0.014 A 
ATOM     21  C   UNL     1      26.050   6.214  49.547  1.00  0.00    +0.028 A 
ATOM     22  H   UNL     1      23.520   5.903  51.458  1.00  0.00    +0.168 HD
ATOM     23  C   UNL     1      26.916   3.826  49.113  1.00  0.00    +0.048 C 
ATOM     24  C   UNL     1      24.684   8.224  50.481  1.00  0.00    +0.064 C 
ENDBRANCH   1  17
TORSDOF 4
ENDMDL
MODEL 5
REMARK VINA RESULT:    -7.353      2.573      3.881
REMARK INTER + INTRA:         -10.510
REMARK INTER:                  -9.563
REMARK INTRA:                  -0.947
REMARK UNBOUND:                -1.437
REMARK SMILES Cc1cccc(N(C(=O)c2ccccc2)c2[nH]c(C)cc2C)c1
REMARK SMILES IDX 7 1 6 2 2 3 3 4 23 5 4 6 5 7 1 8 8 9 9 10 10 11 11 12 15 13
REMARK SMILES IDX 12 14 14 15 13 16 16 17 17 18 21 19 18 20 20 21 22 23 19 24
REMARK H PARENT 17 22
ROOT
ATOM      1  N   UNL     1      23.254   1.630  52.444  1.00  0.00    -0.262 N 
ENDROOT
BRANCH   1   2
ATOM      2  C   UNL     1      22.439   0.612  53.059  1.00  0.00    +0.051 A 
ATOM      3  C   UNL     1      20.257  -0.479  53.319  1.00  0.00    -0.049 A 
ATOM      4  C   UNL     1      20.803  -1.353  54.261  1.00  0.00    +0.003 A 
ATOM      5  C   UNL     1      21.083   0.483  52.715  1.00  0.00    +0.030 A 
ATOM      6  C   UNL     1      22.149  -1.259  54.604  1.00  0.00    +0.002 A 
ATOM      7  C   UNL     1      22.958  -0.288  54.008  1.00  0.00    +0.027 A 
ATOM      8  C   UNL     1      18.821  -0.606  52.907  1.00  0.00    +0.044 C 
ENDBRANCH   1   2
BRANCH   1   9
ATOM      9  C   UNL     1      24.436   2.075  53.072  1.00  0.00    +0.263 C 
ATOM     10  O   UNL     1      24.555   3.165  53.638  1.00  0.00    -0.268 OA
BRANCH   9  11
ATOM     11  C   UNL     1      25.617   1.164  53.156  1.00  0.00    +0.040 A 
ATOM     12  C   UNL     1      25.974   0.314  52.102  1.00  0.00    +0.014 A 
ATOM     13  C   UNL     1      26.323   1.098  54.366  1.00  0.00    +0.014 A 
ATOM     14  C   UNL     1      27.059  -0.555  52.240  1.00  0.00    +0.001 A 
ATOM     15  C   UNL     1      27.406   0.227  54.500  1.00  0.00    +0.001 A 
ATOM     16  C   UNL     1      27.776  -0.594  53.435  1.00  0.00    +0.000 A 
ENDBRANCH   9  11
ENDBRANCH   1   9
BRANCH   1  17
ATOM     17  C   UNL     1      22.759   2.265  51.296  1.00  0.00    +0.120 A 
ATOM     18  N   UNL     1      22.921   1.691  50.051  1.00  0.00    -0.345 N 
ATOM     19  C   UNL     1      22.101   3.475  51.103  1.00  0.00    -0.008 A 
ATOM     20  C   UNL     1      22.428   2.511  49.070  1.00  0.00    +0.014 A 
ATOM     21  C   UNL     1      21.914   3.625  49.696  1.00  0.00    +0.028 A 
ATOM     22  H   UNL     1      23.376   0.802  49.896  1.00  0.00    +0.168 HD
ATOM     23  C   UNL     1      21.604   4.442  52.120  1.00  0.00    +0.048 C 
ATOM     24  C   UNL     1      22.497   2.147  47.634  1.00  0.00    +0.064 C 
ENDBRANCH   1  17
TORSDOF 4
ENDMDL
MODEL 6
REMARK VINA RESULT:    -7.232      1.031      4.599
REMARK INTER + INTRA:         -10.360
REMARK INTER:                  -9.256
REMARK INTRA:                  -1.104
REMARK UNBOUND:                -1.437
REMARK SMILES Cc1cccc(N(C(=O)c2ccccc2)c2[nH]c(C)cc2C)c1
REMARK SMILES IDX 7 1 6 2 2 3 3 4 23 5 4 6 5 7 1 8 8 9 9 10 10 11 11 12 15 13
REMARK SMILES IDX 12 14 14 15 13 16 16 17 17 18 21 19 18 20 20 21 22 23 19 24
REMARK H PARENT 17 22
ROOT
ATOM      1  N   UNL     1      23.596   3.035  51.218  1.00  0.00    -0.262 N 
ENDROOT
BRANCH   1   2
ATOM      2  C   UNL     1      24.113   4.091  50.384  1.00  0.00    +0.051 A 
ATOM      3  C   UNL     1      25.986   5.083  49.147  1.00  0.00    -0.049 A 
ATOM      4  C   UNL     1      25.172   6.155  48.771  1.00  0.00    +0.003 A 
ATOM      5  C   UNL     1      25.444   4.054  49.935  1.00  0.00    +0.030 A 
ATOM      6  C   UNL     1      23.845   6.204  49.186  1.00  0.00    +0.002 A 
ATOM      7  C   UNL     1      23.321   5.182  49.983  1.00  0.00    +0.027 A 
ATOM      8  C   UNL     1      27.402   4.997  48.661  1.00  0.00    +0.044 C 
ENDBRANCH   1   2
BRANCH   1   9
ATOM      9  C   UNL     1      24.253   2.682  52.415  1.00  0.00    +0.263 C 
ATOM     10  O   UNL     1      24.279   3.387  53.428  1.00  0.00    -0.268 OA
BRANCH   9  11
ATOM     11  C   UNL     1      24.899   1.341  52.537  1.00  0.00    +0.040 A 
ATOM     12  C   UNL     1      24.370   0.336  53.357  1.00  0.00    +0.014 A 
ATOM     13  C   UNL     1      26.120   1.126  51.883  1.00  0.00    +0.014 A 
ATOM     14  C   UNL     1      25.031  -0.890  53.477  1.00  0.00    +0.001 A 
ATOM     15  C   UNL     1      26.778  -0.098  52.006  1.00  0.00    +0.001 A 
ATOM     16  C   UNL     1      26.229  -1.107  52.798  1.00  0.00    +0.000 A 
ENDBRANCH   9  11
ENDBRANCH   1   9
BRANCH   1  17
ATOM     17  C   UNL     1      22.523   2.276  50.729  1.00  0.00    +0.120 A 
ATOM     18  N   UNL     1      21.559   1.788  51.588  1.00  0.00    -0.345 N 
ATOM     19  C   UNL     1      22.191   1.834  49.452  1.00  0.00    -0.008 A 
ATOM     20  C   UNL     1      20.649   1.019  50.910  1.00  0.00    +0.014 A 
ATOM     21  C   UNL     1      21.020   1.030  49.584  1.00  0.00    +0.028 A 
ATOM     22  H   UNL     1      21.556   1.955  52.585  1.00  0.00    +0.168 HD
ATOM     23  C   UNL     1      22.847   2.150  48.154  1.00  0.00    +0.048 C 
ATOM     24  C   UNL     1      19.519   0.350  51.599  1.00  0.00    +0.064 C 
ENDBRANCH   1  17
TORSDOF 4
ENDMDL
MODEL 7
REMARK VINA RESULT:    -7.200      1.653      2.267
REMARK INTER + INTRA:         -10.320
REMARK INTER:                  -9.380
REMARK INTRA:                  -0.940
REMARK UNBOUND:                -1.437
REMARK SMILES Cc1cccc(N(C(=O)c2ccccc2)c2[nH]c(C)cc2C)c1
REMARK SMILES IDX 7 1 6 2 2 3 3 4 23 5 4 6 5 7 1 8 8 9 9 10 10 11 11 12 15 13
REMARK SMILES IDX 12 14 14 15 13 16 16 17 17 18 21 19 18 20 20 21 22 23 19 24
REMARK H PARENT 17 22
ROOT
ATOM      1  N   UNL     1      24.707   3.002  50.981  1.00  0.00    -0.262 N 
ENDROOT
BRANCH   1   2
ATOM      2  C   UNL     1      23.548   2.147  50.920  1.00  0.00    +0.051 A 
ATOM      3  C   UNL     1      22.049   0.537  52.008  1.00  0.00    -0.049 A 
ATOM      4  C   UNL     1      21.299   0.439  50.833  1.00  0.00    +0.003 A 
ATOM      5  C   UNL     1      23.155   1.402  52.045  1.00  0.00    +0.030 A 
ATOM      6  C   UNL     1      21.656   1.182  49.712  1.00  0.00    +0.002 A 
ATOM      7  C   UNL     1      22.768   2.027  49.756  1.00  0.00    +0.027 A 
ATOM      8  C   UNL     1      21.641  -0.221  53.236  1.00  0.00    +0.044 C 
ENDBRANCH   1   2
BRANCH   1   9
ATOM      9  C   UNL     1      25.993   2.451  51.159  1.00  0.00    +0.263 C 
ATOM     10  O   UNL     1      26.990   2.789  50.516  1.00  0.00    -0.268 OA
BRANCH   9  11
ATOM     11  C   UNL     1      26.226   1.453  52.246  1.00  0.00    +0.040 A 
ATOM     12  C   UNL     1      26.239   1.819  53.598  1.00  0.00    +0.014 A 
ATOM     13  C   UNL     1      26.533   0.134  51.885  1.00  0.00    +0.014 A 
ATOM     14  C   UNL     1      26.505   0.861  54.580  1.00  0.00    +0.001 A 
ATOM     15  C   UNL     1      26.800  -0.820  52.868  1.00  0.00    +0.001 A 
ATOM     16  C   UNL     1      26.780  -0.456  54.215  1.00  0.00    +0.000 A 
ENDBRANCH   9  11
ENDBRANCH   1   9
BRANCH   1  17
ATOM     17  C   UNL     1      24.500   4.389  51.014  1.00  0.00    +0.120 A 
ATOM     18  N   UNL     1      25.376   5.244  50.375  1.00  0.00    -0.345 N 
ATOM     19  C   UNL     1      23.535   5.179  51.628  1.00  0.00    -0.008 A 
ATOM     20  C   UNL     1      25.026   6.551  50.596  1.00  0.00    +0.014 A 
ATOM     21  C   UNL     1      23.888   6.538  51.371  1.00  0.00    +0.028 A 
ATOM     22  H   UNL     1      26.183   4.936  49.849  1.00  0.00    +0.168 HD
ATOM     23  C   UNL     1      22.315   4.758  52.369  1.00  0.00    +0.048 C 
ATOM     24  C   UNL     1      25.815   7.679  50.043  1.00  0.00    +0.064 C 
ENDBRANCH   1  17
TORSDOF 4
ENDMDL
MODEL 8
REMARK VINA RESULT:    -7.180      2.068      5.330
REMARK INTER + INTRA:         -10.296
REMARK INTER:                  -8.979
REMARK INTRA:                  -1.317
REMARK UNBOUND:                -1.437
REMARK SMILES Cc1cccc(N(C(=O)c2ccccc2)c2[nH]c(C)cc2C)c1
REMARK SMILES IDX 7 1 6 2 2 3 3 4 23 5 4 6 5 7 1 8 8 9 9 10 10 11 11 12 15 13
REMARK SMILES IDX 12 14 14 15 13 16 16 17 17 18 21 19 18 20 20 21 22 23 19 24
REMARK H PARENT 17 22
ROOT
ATOM      1  N   UNL     1      21.821   2.140  51.621  1.00  0.00    -0.262 N 
ENDROOT
BRANCH   1   2
ATOM      2  C   UNL     1      22.706   1.256  52.338  1.00  0.00    +0.051 A 
ATOM      3  C   UNL     1      23.043  -0.459  54.060  1.00  0.00    -0.049 A 
ATOM      4  C   UNL     1      24.412  -0.471  53.784  1.00  0.00    +0.003 A 
ATOM      5  C   UNL     1      22.201   0.391  53.324  1.00  0.00    +0.030 A 
ATOM      6  C   UNL     1      24.933   0.361  52.798  1.00  0.00    +0.002 A 
ATOM      7  C   UNL     1      24.089   1.214  52.082  1.00  0.00    +0.027 A 
ATOM      8  C   UNL     1      22.466  -1.390  55.085  1.00  0.00    +0.044 C 
ENDBRANCH   1   2
BRANCH   1   9
ATOM      9  C   UNL     1      20.493   2.329  52.056  1.00  0.00    +0.263 C 
ATOM     10  O   UNL     1      20.137   3.209  52.844  1.00  0.00    -0.268 OA
BRANCH   9  11
ATOM     11  C   UNL     1      19.400   1.485  51.485  1.00  0.00    +0.040 A 
ATOM     12  C   UNL     1      18.638   1.904  50.388  1.00  0.00    +0.014 A 
ATOM     13  C   UNL     1      19.076   0.285  52.134  1.00  0.00    +0.014 A 
ATOM     14  C   UNL     1      17.595   1.103  49.913  1.00  0.00    +0.001 A 
ATOM     15  C   UNL     1      18.033  -0.511  51.658  1.00  0.00    +0.001 A 
ATOM     16  C   UNL     1      17.298  -0.104  50.545  1.00  0.00    +0.000 A 
ENDBRANCH   9  11
ENDBRANCH   1   9
BRANCH   1  17
ATOM     17  C   UNL     1      22.270   2.675  50.405  1.00  0.00    +0.120 A 
ATOM     18  N   UNL     1      22.917   3.894  50.372  1.00  0.00    -0.345 N 
ATOM     19  C   UNL     1      22.176   2.229  49.091  1.00  0.00    -0.008 A 
ATOM     20  C   UNL     1      23.202   4.257  49.082  1.00  0.00    +0.014 A 
ATOM     21  C   UNL     1      22.752   3.242  48.268  1.00  0.00    +0.028 A 
ATOM     22  H   UNL     1      23.117   4.449  51.193  1.00  0.00    +0.168 HD
ATOM     23  C   UNL     1      21.649   0.934  48.580  1.00  0.00    +0.048 C 
ATOM     24  C   UNL     1      23.876   5.538  48.758  1.00  0.00    +0.064 C 
ENDBRANCH   1  17
TORSDOF 4
ENDMDL
MODEL 9
REMARK VINA RESULT:    -6.946      1.994      4.853
REMARK INTER + INTRA:         -10.007
REMARK INTER:                  -8.670
REMARK INTRA:                  -1.337
REMARK UNBOUND:                -1.437
REMARK SMILES Cc1cccc(N(C(=O)c2ccccc2)c2[nH]c(C)cc2C)c1
REMARK SMILES IDX 7 1 6 2 2 3 3 4 23 5 4 6 5 7 1 8 8 9 9 10 10 11 11 12 15 13
REMARK SMILES IDX 12 14 14 15 13 16 16 17 17 18 21 19 18 20 20 21 22 23 19 24
REMARK H PARENT 17 22
ROOT
ATOM      1  N   UNL     1      22.586   2.795  51.665  1.00  0.00    -0.262 N 
ENDROOT
BRANCH   1   2
ATOM      2  C   UNL     1      22.605   1.597  52.468  1.00  0.00    +0.051 A 
ATOM      3  C   UNL     1      23.877  -0.170  53.601  1.00  0.00    -0.049 A 
ATOM      4  C   UNL     1      22.683  -0.764  54.018  1.00  0.00    +0.003 A 
ATOM      5  C   UNL     1      23.827   1.013  52.844  1.00  0.00    +0.030 A 
ATOM      6  C   UNL     1      21.461  -0.193  53.676  1.00  0.00    +0.002 A 
ATOM      7  C   UNL     1      21.423   0.975  52.910  1.00  0.00    +0.027 A 
ATOM      8  C   UNL     1      25.198  -0.750  54.009  1.00  0.00    +0.044 C 
ENDBRANCH   1   2
BRANCH   1   9
ATOM      9  C   UNL     1      23.547   3.807  51.869  1.00  0.00    +0.263 C 
ATOM     10  O   UNL     1      23.604   4.519  52.874  1.00  0.00    -0.268 OA
BRANCH   9  11
ATOM     11  C   UNL     1      24.637   4.004  50.867  1.00  0.00    +0.040 A 
ATOM     12  C   UNL     1      25.528   2.976  50.529  1.00  0.00    +0.014 A 
ATOM     13  C   UNL     1      24.824   5.284  50.327  1.00  0.00    +0.014 A 
ATOM     14  C   UNL     1      26.561   3.217  49.620  1.00  0.00    +0.001 A 
ATOM     15  C   UNL     1      25.858   5.521  49.420  1.00  0.00    +0.001 A 
ATOM     16  C   UNL     1      26.722   4.485  49.063  1.00  0.00    +0.000 A 
ENDBRANCH   9  11
ENDBRANCH   1   9
BRANCH   1  17
ATOM     17  C   UNL     1      21.503   2.986  50.795  1.00  0.00    +0.120 A 
ATOM     18  N   UNL     1      20.452   3.806  51.153  1.00  0.00    -0.345 N 
ATOM     19  C   UNL     1      21.202   2.463  49.542  1.00  0.00    -0.008 A 
ATOM     20  C   UNL     1      19.475   3.791  50.192  1.00  0.00    +0.014 A 
ATOM     21  C   UNL     1      19.915   2.964  49.183  1.00  0.00    +0.028 A 
ATOM     22  H   UNL     1      20.406   4.315  52.026  1.00  0.00    +0.168 HD
ATOM     23  C   UNL     1      22.037   1.596  48.666  1.00  0.00    +0.048 C 
ATOM     24  C   UNL     1      18.220   4.568  50.336  1.00  0.00    +0.064 C 
ENDBRANCH   1  17
TORSDOF 4
ENDMDL
