REMARK SMILES Cc1cc(C)c(-c2ccc(O)c([N+](=O)[O-])c2)[nH]1
REMARK SMILES IDX 7 1 8 2 9 3 10 4 12 5 16 6 6 7 2 8 3 9 17 10 4 11 1 12 5 14
REMARK SMILES IDX 13 15 14 16 15 17 11 18
REMARK H PARENT 17 13 11 19
ROOT
ATOM      1  C   UNL     1       0.560  -0.261   0.166  1.00  0.00    +0.005 A 
ATOM      2  C   UNL     1       1.073  -1.452   0.693  1.00  0.00    +0.014 A 
ATOM      3  C   UNL     1       2.450  -1.629   0.849  1.00  0.00    +0.054 A 
ATOM      4  C   UNL     1       3.334  -0.617   0.480  1.00  0.00    +0.194 A 
ATOM      5  C   UNL     1       2.830   0.580  -0.045  1.00  0.00    +0.311 A 
ATOM      6  C   UNL     1       1.445   0.759  -0.203  1.00  0.00    +0.100 A 
ENDROOT
BRANCH   1   7
ATOM      7  C   UNL     1      -0.882  -0.086   0.003  1.00  0.00    +0.049 A 
ATOM      8  C   UNL     1      -2.888   0.926   0.246  1.00  0.00    +0.012 A 
ATOM      9  C   UNL     1      -3.090  -0.234  -0.469  1.00  0.00    +0.026 A 
ATOM     10  N   UNL     1      -1.547   1.004   0.522  1.00  0.00    -0.358 N 
ATOM     11  C   UNL     1      -1.831  -0.879  -0.630  1.00  0.00    -0.025 A 
ATOM     12  C   UNL     1      -3.840   1.970   0.696  1.00  0.00    +0.064 C 
ATOM     13  H   UNL     1      -1.108   1.745   1.052  1.00  0.00    +0.166 HD
ATOM     14  C   UNL     1      -1.605  -2.158  -1.358  1.00  0.00    +0.047 C 
ENDBRANCH   1   7
BRANCH   5  15
ATOM     15  N   UNL     1       3.728   1.668  -0.435  1.00  0.00    +0.066 N 
ATOM     16  O   UNL     1       3.223   2.746  -0.778  1.00  0.00    -0.258 OA
ATOM     17  O   UNL     1       4.949   1.447  -0.390  1.00  0.00    -0.258 OA
ENDBRANCH   5  15
BRANCH   4  18
ATOM     18  O   UNL     1       4.658  -0.901   0.675  1.00  0.00    -0.502 OA
ATOM     19  H   UNL     1       5.212  -0.163   0.343  1.00  0.00    +0.293 HD
ENDBRANCH   4  18
TORSDOF 3
