REMARK SMILES C/N=N/Nc1ccc2ncnc(C(=O)O)c2c1
REMARK SMILES IDX 5 1 6 2 7 3 8 4 9 5 10 6 11 7 12 8 16 9 17 10 4 11 3 13 2 14
REMARK SMILES IDX 1 15 13 16 14 17 15 18
REMARK H PARENT 4 12 15 19
ROOT
ATOM      1  C   UNL     1      -0.976   0.395   0.946  1.00  0.00    +0.059 A 
ATOM      2  C   UNL     1      -0.597   1.203   2.014  1.00  0.00    +0.030 A 
ATOM      3  C   UNL     1       0.708   1.700   2.105  1.00  0.00    +0.031 A 
ATOM      4  C   UNL     1       1.666   1.433   1.139  1.00  0.00    +0.075 A 
ATOM      5  N   UNL     1       2.883   1.958   1.311  1.00  0.00    -0.236 NA
ATOM      6  C   UNL     1       3.799   1.711   0.370  1.00  0.00    +0.223 A 
ATOM      7  N   UNL     1       3.608   0.982  -0.725  1.00  0.00    -0.229 NA
ATOM      8  C   UNL     1       2.366   0.455  -0.878  1.00  0.00    +0.159 A 
ATOM      9  C   UNL     1       1.314   0.644   0.037  1.00  0.00    +0.036 A 
ATOM     10  C   UNL     1      -0.021   0.147  -0.050  1.00  0.00    +0.040 A 
ENDROOT
BRANCH   1  11
ATOM     11  N   UNL     1      -2.309  -0.034   0.845  1.00  0.00    -0.260 N 
ATOM     12  H   UNL     1      -2.826  -0.079   1.717  1.00  0.00    +0.192 HD
BRANCH  11  13
ATOM     13  N   UNL     1      -2.622  -0.999  -0.038  1.00  0.00    -0.075 NA
ATOM     14  N   UNL     1      -3.707  -1.472   0.347  1.00  0.00    -0.174 NA
ATOM     15  C   UNL     1      -4.172  -2.538  -0.541  1.00  0.00    +0.200 C 
ENDBRANCH  11  13
ENDBRANCH   1  11
BRANCH   8  16
ATOM     16  C   UNL     1       2.196  -0.381  -2.117  1.00  0.00    +0.355 C 
ATOM     17  O   UNL     1       1.296  -1.159  -2.376  1.00  0.00    -0.245 OA
BRANCH  16  18
ATOM     18  O   UNL     1       3.197  -0.197  -3.006  1.00  0.00    -0.476 OA
ATOM     19  H   UNL     1       2.982  -0.798  -3.746  1.00  0.00    +0.297 HD
ENDBRANCH  16  18
ENDBRANCH   8  16
TORSDOF 4
