REMARK SMILES Cc1cc(C)c(C=Cc2cc(C(=O)O)cc(O)c2O)[nH]1
REMARK SMILES IDX 9 1 10 2 11 3 15 4 16 5 18 6 8 7 7 8 6 9 2 10 3 11 20 12
REMARK SMILES IDX 4 13 1 14 5 16 19 17 12 19 13 20 14 21 17 23
REMARK H PARENT 20 15 19 18 14 22 17 24
ROOT
ATOM      1  C   UNL     1      -1.710  -0.303   0.366  1.00  0.00    +0.021 A 
ATOM      2  C   UNL     1      -2.358   0.941   0.305  1.00  0.00    +0.028 A 
ATOM      3  C   UNL     1      -3.748   1.016   0.114  1.00  0.00    +0.064 A 
ATOM      4  C   UNL     1      -4.501  -0.157  -0.013  1.00  0.00    +0.065 A 
ATOM      5  C   UNL     1      -3.857  -1.383   0.046  1.00  0.00    +0.158 A 
ATOM      6  C   UNL     1      -2.476  -1.466   0.228  1.00  0.00    +0.164 A 
ENDROOT
BRANCH   1   7
ATOM      7  C   UNL     1      -0.260  -0.354   0.579  1.00  0.00    +0.014 C 
ATOM      8  C   UNL     1       0.603  -0.003  -0.383  1.00  0.00    +0.027 C 
BRANCH   8   9
ATOM      9  C   UNL     1       2.004  -0.063  -0.178  1.00  0.00    +0.041 A 
ATOM     10  C   UNL     1       4.095   0.715  -0.527  1.00  0.00    +0.012 A 
ATOM     11  C   UNL     1       4.186  -0.362   0.327  1.00  0.00    +0.026 A 
ATOM     12  N   UNL     1       2.769   0.871  -0.845  1.00  0.00    -0.359 N 
ATOM     13  C   UNL     1       2.872  -0.868   0.547  1.00  0.00    -0.026 A 
ATOM     14  C   UNL     1       5.148   1.609  -1.067  1.00  0.00    +0.064 C 
ATOM     15  H   UNL     1       2.404   1.597  -1.445  1.00  0.00    +0.166 HD
ATOM     16  C   UNL     1       2.544  -2.046   1.396  1.00  0.00    +0.046 C 
ENDBRANCH   8   9
ENDBRANCH   1   7
BRANCH   6  17
ATOM     17  O   UNL     1      -1.938  -2.728   0.249  1.00  0.00    -0.504 OA
ATOM     18  H   UNL     1      -0.968  -2.643   0.264  1.00  0.00    +0.293 HD
ENDBRANCH   6  17
BRANCH   3  19
ATOM     19  C   UNL     1      -4.460   2.314   0.040  1.00  0.00    +0.335 C 
ATOM     20  O   UNL     1      -5.657   2.468  -0.115  1.00  0.00    -0.246 OA
BRANCH  19  21
ATOM     21  O   UNL     1      -3.632   3.369   0.161  1.00  0.00    -0.478 OA
ATOM     22  H   UNL     1      -4.233   4.142   0.099  1.00  0.00    +0.297 HD
ENDBRANCH  19  21
ENDBRANCH   3  19
BRANCH   5  23
ATOM     23  O   UNL     1      -4.594  -2.526  -0.084  1.00  0.00    -0.504 OA
ATOM     24  H   UNL     1      -3.943  -3.251  -0.005  1.00  0.00    +0.293 HD
ENDBRANCH   5  23
TORSDOF 6
