REMARK SMILES C[N+](C)(C)C[C@H](O)COc1c(Cl)cccc1Cl
REMARK SMILES IDX 6 1 5 2 2 3 1 4 3 5 4 6 7 7 8 9 9 10 10 11 11 12 16 13 13 14
REMARK SMILES IDX 15 15 14 16 12 17 17 18
REMARK H PARENT 7 8
ROOT
ATOM      1  C   UNL     1      -0.544  -0.371  -0.179  1.00  0.00    +0.206 C 
ENDROOT
BRANCH   1   2
ATOM      2  C   UNL     1      -1.724   0.377   0.473  1.00  0.00    +0.299 C 
BRANCH   2   3
ATOM      3  N   UNL     1      -3.135  -0.111   0.036  1.00  0.00    -0.329 N 
ATOM      4  C   UNL     1      -4.170   0.690   0.828  1.00  0.00    +0.334 C 
ATOM      5  C   UNL     1      -3.371   0.122  -1.448  1.00  0.00    +0.334 C 
ATOM      6  C   UNL     1      -3.337  -1.593   0.353  1.00  0.00    +0.334 C 
ENDBRANCH   2   3
ENDBRANCH   1   2
BRANCH   1   7
ATOM      7  O   UNL     1      -0.517  -1.732   0.273  1.00  0.00    -0.384 OA
ATOM      8  H   UNL     1       0.356  -2.098   0.017  1.00  0.00    +0.211 HD
ENDBRANCH   1   7
BRANCH   1   9
ATOM      9  C   UNL     1       0.785   0.298   0.201  1.00  0.00    +0.267 C 
BRANCH   9  10
ATOM     10  O   UNL     1       1.810  -0.379  -0.546  1.00  0.00    -0.488 OA
BRANCH  10  11
ATOM     11  C   UNL     1       3.060   0.017  -0.136  1.00  0.00    +0.156 A 
ATOM     12  C   UNL     1       3.698   1.104  -0.747  1.00  0.00    +0.084 A 
ATOM     13  C   UNL     1       3.742  -0.724   0.838  1.00  0.00    +0.084 A 
ATOM     14  C   UNL     1       4.987   1.472  -0.354  1.00  0.00    +0.024 A 
ATOM     15  C   UNL     1       5.030  -0.354   1.230  1.00  0.00    +0.024 A 
ATOM     16  C   UNL     1       5.651   0.746   0.636  1.00  0.00    +0.003 A 
ATOM     17 Cl   UNL     1       2.926   2.014  -1.996  1.00  0.00    -0.080 Cl
ATOM     18 Cl   UNL     1       3.015  -2.104   1.580  1.00  0.00    -0.080 Cl
ENDBRANCH  10  11
ENDBRANCH   9  10
ENDBRANCH   1   9
TORSDOF 6
