MODEL 1
REMARK VINA RESULT:    -7.907      0.000      0.000
REMARK INTER + INTRA:          -9.463
REMARK INTER:                  -9.293
REMARK INTRA:                  -0.170
REMARK UNBOUND:                -0.170
REMARK SMILES C/N=N/Nc1ccc2ncnc(-c3ccccc3)c2c1
REMARK SMILES IDX 4 1 3 3 2 4 1 5 5 6 6 7 20 8 7 9 19 10 8 11 12 12 9 13 11 14
REMARK SMILES IDX 10 15 13 16 14 17 18 18 15 19 17 20 16 21
REMARK H PARENT 4 2
ROOT
ATOM      1  N   UNL     1      26.414  -0.389  54.247  1.00  0.00    -0.260 N 
ATOM      2  H   UNL     1      26.819   0.006  55.088  1.00  0.00    +0.192 HD
ENDROOT
BRANCH   1   3
ATOM      3  N   UNL     1      27.206  -1.266  53.604  1.00  0.00    -0.075 NA
ATOM      4  N   UNL     1      28.370  -0.970  53.927  1.00  0.00    -0.174 NA
ATOM      5  C   UNL     1      29.345  -1.850  53.283  1.00  0.00    +0.200 C 
ENDBRANCH   1   3
BRANCH   1   6
ATOM      6  C   UNL     1      25.028  -0.617  54.284  1.00  0.00    +0.059 A 
ATOM      7  C   UNL     1      24.471  -1.277  55.379  1.00  0.00    +0.030 A 
ATOM      8  C   UNL     1      24.152  -0.109  53.319  1.00  0.00    +0.040 A 
ATOM      9  C   UNL     1      23.088  -1.472  55.469  1.00  0.00    +0.031 A 
ATOM     10  C   UNL     1      22.744  -0.294  53.413  1.00  0.00    +0.029 A 
ATOM     11  C   UNL     1      22.216  -1.000  54.500  1.00  0.00    +0.074 A 
ATOM     12  C   UNL     1      21.789   0.166  52.488  1.00  0.00    +0.081 A 
ATOM     13  N   UNL     1      20.908  -1.237  54.652  1.00  0.00    -0.236 NA
ATOM     14  N   UNL     1      20.464  -0.081  52.615  1.00  0.00    -0.236 NA
ATOM     15  C   UNL     1      20.095  -0.770  53.698  1.00  0.00    +0.223 A 
BRANCH  12  16
ATOM     16  C   UNL     1      22.127   0.957  51.293  1.00  0.00    +0.001 A 
ATOM     17  C   UNL     1      21.540   0.658  50.051  1.00  0.00    +0.010 A 
ATOM     18  C   UNL     1      23.020   2.040  51.362  1.00  0.00    +0.010 A 
ATOM     19  C   UNL     1      21.855   1.402  48.911  1.00  0.00    +0.001 A 
ATOM     20  C   UNL     1      23.335   2.784  50.222  1.00  0.00    +0.001 A 
ATOM     21  C   UNL     1      22.755   2.462  48.997  1.00  0.00    +0.000 A 
ENDBRANCH  12  16
ENDBRANCH   1   6
TORSDOF 3
ENDMDL
MODEL 2
REMARK VINA RESULT:    -7.586      3.661      6.570
REMARK INTER + INTRA:          -9.085
REMARK INTER:                  -8.762
REMARK INTRA:                  -0.324
REMARK UNBOUND:                -0.170
REMARK SMILES C/N=N/Nc1ccc2ncnc(-c3ccccc3)c2c1
REMARK SMILES IDX 4 1 3 3 2 4 1 5 5 6 6 7 20 8 7 9 19 10 8 11 12 12 9 13 11 14
REMARK SMILES IDX 10 15 13 16 14 17 18 18 15 19 17 20 16 21
REMARK H PARENT 4 2
ROOT
ATOM      1  N   UNL     1      26.879   3.991  49.727  1.00  0.00    -0.260 N 
ATOM      2  H   UNL     1      27.676   3.520  49.316  1.00  0.00    +0.192 HD
ENDROOT
BRANCH   1   3
ATOM      3  N   UNL     1      26.384   5.001  48.989  1.00  0.00    -0.075 NA
ATOM      4  N   UNL     1      27.327   5.798  48.832  1.00  0.00    -0.174 NA
ATOM      5  C   UNL     1      26.919   6.962  48.045  1.00  0.00    +0.200 C 
ENDBRANCH   1   3
BRANCH   1   6
ATOM      6  C   UNL     1      25.993   3.176  50.452  1.00  0.00    +0.059 A 
ATOM      7  C   UNL     1      24.620   3.313  50.257  1.00  0.00    +0.030 A 
ATOM      8  C   UNL     1      26.429   2.141  51.286  1.00  0.00    +0.040 A 
ATOM      9  C   UNL     1      23.715   2.479  50.925  1.00  0.00    +0.031 A 
ATOM     10  C   UNL     1      25.514   1.282  51.958  1.00  0.00    +0.029 A 
ATOM     11  C   UNL     1      24.139   1.472  51.779  1.00  0.00    +0.074 A 
ATOM     12  C   UNL     1      25.856   0.228  52.824  1.00  0.00    +0.081 A 
ATOM     13  N   UNL     1      23.213   0.725  52.390  1.00  0.00    -0.236 NA
ATOM     14  N   UNL     1      24.933  -0.525  53.466  1.00  0.00    -0.236 NA
ATOM     15  C   UNL     1      23.655  -0.236  53.209  1.00  0.00    +0.223 A 
BRANCH  12  16
ATOM     16  C   UNL     1      27.244  -0.162  53.124  1.00  0.00    +0.001 A 
ATOM     17  C   UNL     1      28.129   0.752  53.721  1.00  0.00    +0.010 A 
ATOM     18  C   UNL     1      27.715  -1.457  52.846  1.00  0.00    +0.010 A 
ATOM     19  C   UNL     1      29.448   0.391  54.007  1.00  0.00    +0.001 A 
ATOM     20  C   UNL     1      29.033  -1.819  53.133  1.00  0.00    +0.001 A 
ATOM     21  C   UNL     1      29.900  -0.892  53.710  1.00  0.00    +0.000 A 
ENDBRANCH  12  16
ENDBRANCH   1   6
TORSDOF 3
ENDMDL
MODEL 3
REMARK VINA RESULT:    -7.523      1.391      1.881
REMARK INTER + INTRA:          -9.012
REMARK INTER:                  -8.395
REMARK INTRA:                  -0.617
REMARK UNBOUND:                -0.170
REMARK SMILES C/N=N/Nc1ccc2ncnc(-c3ccccc3)c2c1
REMARK SMILES IDX 4 1 3 3 2 4 1 5 5 6 6 7 20 8 7 9 19 10 8 11 12 12 9 13 11 14
REMARK SMILES IDX 10 15 13 16 14 17 18 18 15 19 17 20 16 21
REMARK H PARENT 4 2
ROOT
ATOM      1  N   UNL     1      25.337  -0.916  55.191  1.00  0.00    -0.260 N 
ATOM      2  H   UNL     1      25.487  -1.736  55.768  1.00  0.00    +0.192 HD
ENDROOT
BRANCH   1   3
ATOM      3  N   UNL     1      26.396  -0.558  54.443  1.00  0.00    -0.075 NA
ATOM      4  N   UNL     1      27.276  -0.205  55.249  1.00  0.00    -0.174 NA
ATOM      5  C   UNL     1      28.493   0.224  54.561  1.00  0.00    +0.200 C 
ENDBRANCH   1   3
BRANCH   1   6
ATOM      6  C   UNL     1      24.044  -0.768  54.661  1.00  0.00    +0.059 A 
ATOM      7  C   UNL     1      23.007  -1.559  55.154  1.00  0.00    +0.030 A 
ATOM      8  C   UNL     1      23.716   0.224  53.732  1.00  0.00    +0.040 A 
ATOM      9  C   UNL     1      21.698  -1.398  54.684  1.00  0.00    +0.031 A 
ATOM     10  C   UNL     1      22.385   0.400  53.259  1.00  0.00    +0.029 A 
ATOM     11  C   UNL     1      21.371  -0.438  53.738  1.00  0.00    +0.074 A 
ATOM     12  C   UNL     1      21.964   1.358  52.319  1.00  0.00    +0.081 A 
ATOM     13  N   UNL     1      20.101  -0.354  53.330  1.00  0.00    -0.236 NA
ATOM     14  N   UNL     1      20.687   1.445  51.880  1.00  0.00    -0.236 NA
ATOM     15  C   UNL     1      19.820   0.581  52.415  1.00  0.00    +0.223 A 
BRANCH  12  16
ATOM     16  C   UNL     1      22.861   2.358  51.716  1.00  0.00    +0.001 A 
ATOM     17  C   UNL     1      23.466   2.114  50.472  1.00  0.00    +0.010 A 
ATOM     18  C   UNL     1      23.118   3.586  52.350  1.00  0.00    +0.010 A 
ATOM     19  C   UNL     1      24.321   3.055  49.891  1.00  0.00    +0.001 A 
ATOM     20  C   UNL     1      23.971   4.528  51.770  1.00  0.00    +0.001 A 
ATOM     21  C   UNL     1      24.575   4.260  50.543  1.00  0.00    +0.000 A 
ENDBRANCH  12  16
ENDBRANCH   1   6
TORSDOF 3
ENDMDL
MODEL 4
REMARK VINA RESULT:    -7.523      2.690      5.337
REMARK INTER + INTRA:          -9.012
REMARK INTER:                  -8.409
REMARK INTRA:                  -0.603
REMARK UNBOUND:                -0.170
REMARK SMILES C/N=N/Nc1ccc2ncnc(-c3ccccc3)c2c1
REMARK SMILES IDX 4 1 3 3 2 4 1 5 5 6 6 7 20 8 7 9 19 10 8 11 12 12 9 13 11 14
REMARK SMILES IDX 10 15 13 16 14 17 18 18 15 19 17 20 16 21
REMARK H PARENT 4 2
ROOT
ATOM      1  N   UNL     1      23.389   2.862  50.432  1.00  0.00    -0.260 N 
ATOM      2  H   UNL     1      22.653   3.362  49.947  1.00  0.00    +0.192 HD
ENDROOT
BRANCH   1   3
ATOM      3  N   UNL     1      24.541   3.547  50.559  1.00  0.00    -0.075 NA
ATOM      4  N   UNL     1      25.079   3.514  49.438  1.00  0.00    -0.174 NA
ATOM      5  C   UNL     1      26.359   4.222  49.436  1.00  0.00    +0.200 C 
ENDBRANCH   1   3
BRANCH   1   6
ATOM      6  C   UNL     1      22.972   2.025  51.481  1.00  0.00    +0.059 A 
ATOM      7  C   UNL     1      21.609   1.850  51.717  1.00  0.00    +0.030 A 
ATOM      8  C   UNL     1      23.865   1.260  52.239  1.00  0.00    +0.040 A 
ATOM      9  C   UNL     1      21.163   0.981  52.720  1.00  0.00    +0.031 A 
ATOM     10  C   UNL     1      23.415   0.366  53.252  1.00  0.00    +0.029 A 
ATOM     11  C   UNL     1      22.043   0.244  53.497  1.00  0.00    +0.074 A 
ATOM     12  C   UNL     1      24.235  -0.430  54.071  1.00  0.00    +0.081 A 
ATOM     13  N   UNL     1      21.539  -0.555  54.444  1.00  0.00    -0.236 NA
ATOM     14  N   UNL     1      23.745  -1.230  55.046  1.00  0.00    -0.236 NA
ATOM     15  C   UNL     1      22.416  -1.250  55.178  1.00  0.00    +0.223 A 
BRANCH  12  16
ATOM     16  C   UNL     1      25.703  -0.477  53.955  1.00  0.00    +0.001 A 
ATOM     17  C   UNL     1      26.511   0.253  54.843  1.00  0.00    +0.010 A 
ATOM     18  C   UNL     1      26.334  -1.266  52.978  1.00  0.00    +0.010 A 
ATOM     19  C   UNL     1      27.904   0.216  54.741  1.00  0.00    +0.001 A 
ATOM     20  C   UNL     1      27.727  -1.305  52.877  1.00  0.00    +0.001 A 
ATOM     21  C   UNL     1      28.511  -0.560  53.756  1.00  0.00    +0.000 A 
ENDBRANCH  12  16
ENDBRANCH   1   6
TORSDOF 3
ENDMDL
MODEL 5
REMARK VINA RESULT:    -7.497      3.074      4.496
REMARK INTER + INTRA:          -8.982
REMARK INTER:                  -8.544
REMARK INTRA:                  -0.438
REMARK UNBOUND:                -0.170
REMARK SMILES C/N=N/Nc1ccc2ncnc(-c3ccccc3)c2c1
REMARK SMILES IDX 4 1 3 3 2 4 1 5 5 6 6 7 20 8 7 9 19 10 8 11 12 12 9 13 11 14
REMARK SMILES IDX 10 15 13 16 14 17 18 18 15 19 17 20 16 21
REMARK H PARENT 4 2
ROOT
ATOM      1  N   UNL     1      26.153   2.167  54.235  1.00  0.00    -0.260 N 
ATOM      2  H   UNL     1      25.790   2.041  55.173  1.00  0.00    +0.192 HD
ENDROOT
BRANCH   1   3
ATOM      3  N   UNL     1      27.425   1.763  54.068  1.00  0.00    -0.075 NA
ATOM      4  N   UNL     1      27.529   0.702  54.710  1.00  0.00    -0.174 NA
ATOM      5  C   UNL     1      28.882   0.152  54.621  1.00  0.00    +0.200 C 
ENDBRANCH   1   3
BRANCH   1   6
ATOM      6  C   UNL     1      25.231   1.975  53.192  1.00  0.00    +0.059 A 
ATOM      7  C   UNL     1      24.146   1.122  53.384  1.00  0.00    +0.030 A 
ATOM      8  C   UNL     1      25.285   2.695  51.993  1.00  0.00    +0.040 A 
ATOM      9  C   UNL     1      23.183   0.952  52.382  1.00  0.00    +0.031 A 
ATOM     10  C   UNL     1      24.302   2.535  50.977  1.00  0.00    +0.029 A 
ATOM     11  C   UNL     1      23.247   1.637  51.178  1.00  0.00    +0.074 A 
ATOM     12  C   UNL     1      24.280   3.201  49.738  1.00  0.00    +0.081 A 
ATOM     13  N   UNL     1      22.296   1.411  50.266  1.00  0.00    -0.236 NA
ATOM     14  N   UNL     1      23.337   2.972  48.796  1.00  0.00    -0.236 NA
ATOM     15  C   UNL     1      22.389   2.086  49.115  1.00  0.00    +0.223 A 
BRANCH  12  16
ATOM     16  C   UNL     1      25.276   4.211  49.339  1.00  0.00    +0.001 A 
ATOM     17  C   UNL     1      24.894   5.547  49.134  1.00  0.00    +0.010 A 
ATOM     18  C   UNL     1      26.631   3.875  49.174  1.00  0.00    +0.010 A 
ATOM     19  C   UNL     1      25.830   6.512  48.753  1.00  0.00    +0.001 A 
ATOM     20  C   UNL     1      27.568   4.839  48.795  1.00  0.00    +0.001 A 
ATOM     21  C   UNL     1      27.166   6.156  48.581  1.00  0.00    +0.000 A 
ENDBRANCH  12  16
ENDBRANCH   1   6
TORSDOF 3
ENDMDL
MODEL 6
REMARK VINA RESULT:    -7.200      2.160      5.269
REMARK INTER + INTRA:          -8.632
REMARK INTER:                  -8.360
REMARK INTRA:                  -0.272
REMARK UNBOUND:                -0.170
REMARK SMILES C/N=N/Nc1ccc2ncnc(-c3ccccc3)c2c1
REMARK SMILES IDX 4 1 3 3 2 4 1 5 5 6 6 7 20 8 7 9 19 10 8 11 12 12 9 13 11 14
REMARK SMILES IDX 10 15 13 16 14 17 18 18 15 19 17 20 16 21
REMARK H PARENT 4 2
ROOT
ATOM      1  N   UNL     1      19.965   1.279  50.517  1.00  0.00    -0.260 N 
ATOM      2  H   UNL     1      19.515   2.175  50.662  1.00  0.00    +0.192 HD
ENDROOT
BRANCH   1   3
ATOM      3  N   UNL     1      20.710   1.201  49.399  1.00  0.00    -0.075 NA
ATOM      4  N   UNL     1      20.869   2.375  49.018  1.00  0.00    -0.174 NA
ATOM      5  C   UNL     1      21.664   2.436  47.791  1.00  0.00    +0.200 C 
ENDBRANCH   1   3
BRANCH   1   6
ATOM      6  C   UNL     1      20.403   0.618  51.678  1.00  0.00    +0.059 A 
ATOM      7  C   UNL     1      19.491  -0.122  52.430  1.00  0.00    +0.030 A 
ATOM      8  C   UNL     1      21.747   0.572  52.060  1.00  0.00    +0.040 A 
ATOM      9  C   UNL     1      19.908  -0.833  53.561  1.00  0.00    +0.031 A 
ATOM     10  C   UNL     1      22.178  -0.160  53.203  1.00  0.00    +0.029 A 
ATOM     11  C   UNL     1      21.235  -0.858  53.965  1.00  0.00    +0.074 A 
ATOM     12  C   UNL     1      23.501  -0.253  53.671  1.00  0.00    +0.081 A 
ATOM     13  N   UNL     1      21.552  -1.551  55.064  1.00  0.00    -0.236 NA
ATOM     14  N   UNL     1      23.838  -0.934  54.791  1.00  0.00    -0.236 NA
ATOM     15  C   UNL     1      22.839  -1.551  55.428  1.00  0.00    +0.223 A 
BRANCH  12  16
ATOM     16  C   UNL     1      24.650   0.376  52.999  1.00  0.00    +0.001 A 
ATOM     17  C   UNL     1      25.792  -0.378  52.683  1.00  0.00    +0.010 A 
ATOM     18  C   UNL     1      24.630   1.734  52.634  1.00  0.00    +0.010 A 
ATOM     19  C   UNL     1      26.888   0.210  52.046  1.00  0.00    +0.001 A 
ATOM     20  C   UNL     1      25.724   2.322  51.997  1.00  0.00    +0.001 A 
ATOM     21  C   UNL     1      26.855   1.560  51.707  1.00  0.00    +0.000 A 
ENDBRANCH  12  16
ENDBRANCH   1   6
TORSDOF 3
ENDMDL
MODEL 7
REMARK VINA RESULT:    -7.046      2.237      4.742
REMARK INTER + INTRA:          -8.451
REMARK INTER:                  -8.052
REMARK INTRA:                  -0.400
REMARK UNBOUND:                -0.170
REMARK SMILES C/N=N/Nc1ccc2ncnc(-c3ccccc3)c2c1
REMARK SMILES IDX 4 1 3 3 2 4 1 5 5 6 6 7 20 8 7 9 19 10 8 11 12 12 9 13 11 14
REMARK SMILES IDX 10 15 13 16 14 17 18 18 15 19 17 20 16 21
REMARK H PARENT 4 2
ROOT
ATOM      1  N   UNL     1      27.032   2.693  52.398  1.00  0.00    -0.260 N 
ATOM      2  H   UNL     1      26.959   3.220  53.261  1.00  0.00    +0.192 HD
ENDROOT
BRANCH   1   3
ATOM      3  N   UNL     1      27.750   1.560  52.494  1.00  0.00    -0.075 NA
ATOM      4  N   UNL     1      28.507   1.720  53.467  1.00  0.00    -0.174 NA
ATOM      5  C   UNL     1      29.361   0.552  53.681  1.00  0.00    +0.200 C 
ENDBRANCH   1   3
BRANCH   1   6
ATOM      6  C   UNL     1      25.897   2.717  51.570  1.00  0.00    +0.059 A 
ATOM      7  C   UNL     1      25.977   3.319  50.315  1.00  0.00    +0.030 A 
ATOM      8  C   UNL     1      24.707   2.058  51.897  1.00  0.00    +0.040 A 
ATOM      9  C   UNL     1      24.879   3.312  49.446  1.00  0.00    +0.031 A 
ATOM     10  C   UNL     1      23.592   2.037  51.013  1.00  0.00    +0.029 A 
ATOM     11  C   UNL     1      23.685   2.689  49.778  1.00  0.00    +0.074 A 
ATOM     12  C   UNL     1      22.356   1.416  51.260  1.00  0.00    +0.081 A 
ATOM     13  N   UNL     1      22.678   2.736  48.899  1.00  0.00    -0.236 NA
ATOM     14  N   UNL     1      21.319   1.469  50.392  1.00  0.00    -0.236 NA
ATOM     15  C   UNL     1      21.540   2.127  49.251  1.00  0.00    +0.223 A 
BRANCH  12  16
ATOM     16  C   UNL     1      22.059   0.648  52.482  1.00  0.00    +0.001 A 
ATOM     17  C   UNL     1      21.016   1.044  53.337  1.00  0.00    +0.010 A 
ATOM     18  C   UNL     1      22.787  -0.507  52.815  1.00  0.00    +0.010 A 
ATOM     19  C   UNL     1      20.728   0.324  54.499  1.00  0.00    +0.001 A 
ATOM     20  C   UNL     1      22.499  -1.228  53.976  1.00  0.00    +0.001 A 
ATOM     21  C   UNL     1      21.472  -0.809  54.819  1.00  0.00    +0.000 A 
ENDBRANCH  12  16
ENDBRANCH   1   6
TORSDOF 3
ENDMDL
MODEL 8
REMARK VINA RESULT:    -7.042      1.956      5.338
REMARK INTER + INTRA:          -8.447
REMARK INTER:                  -7.854
REMARK INTRA:                  -0.593
REMARK UNBOUND:                -0.170
REMARK SMILES C/N=N/Nc1ccc2ncnc(-c3ccccc3)c2c1
REMARK SMILES IDX 4 1 3 3 2 4 1 5 5 6 6 7 20 8 7 9 19 10 8 11 12 12 9 13 11 14
REMARK SMILES IDX 10 15 13 16 14 17 18 18 15 19 17 20 16 21
REMARK H PARENT 4 2
ROOT
ATOM      1  N   UNL     1      19.328  -1.056  53.926  1.00  0.00    -0.260 N 
ATOM      2  H   UNL     1      18.946  -1.003  54.864  1.00  0.00    +0.192 HD
ENDROOT
BRANCH   1   3
ATOM      3  N   UNL     1      18.463  -0.728  52.950  1.00  0.00    -0.075 NA
ATOM      4  N   UNL     1      17.373  -1.227  53.283  1.00  0.00    -0.174 NA
ATOM      5  C   UNL     1      16.332  -0.951  52.293  1.00  0.00    +0.200 C 
ENDBRANCH   1   3
BRANCH   1   6
ATOM      6  C   UNL     1      20.678  -0.690  53.795  1.00  0.00    +0.059 A 
ATOM      7  C   UNL     1      21.626  -1.247  54.653  1.00  0.00    +0.030 A 
ATOM      8  C   UNL     1      21.143   0.128  52.760  1.00  0.00    +0.040 A 
ATOM      9  C   UNL     1      22.985  -0.943  54.512  1.00  0.00    +0.031 A 
ATOM     10  C   UNL     1      22.526   0.430  52.605  1.00  0.00    +0.029 A 
ATOM     11  C   UNL     1      23.450  -0.106  53.509  1.00  0.00    +0.074 A 
ATOM     12  C   UNL     1      23.083   1.251  51.608  1.00  0.00    +0.081 A 
ATOM     13  N   UNL     1      24.762   0.146  53.448  1.00  0.00    -0.236 NA
ATOM     14  N   UNL     1      24.405   1.532  51.542  1.00  0.00    -0.236 NA
ATOM     15  C   UNL     1      25.176   0.958  52.469  1.00  0.00    +0.223 A 
BRANCH  12  16
ATOM     16  C   UNL     1      22.293   1.887  50.540  1.00  0.00    +0.001 A 
ATOM     17  C   UNL     1      21.906   3.234  50.645  1.00  0.00    +0.010 A 
ATOM     18  C   UNL     1      21.926   1.179  49.382  1.00  0.00    +0.010 A 
ATOM     19  C   UNL     1      21.156   3.846  49.638  1.00  0.00    +0.001 A 
ATOM     20  C   UNL     1      21.177   1.791  48.375  1.00  0.00    +0.001 A 
ATOM     21  C   UNL     1      20.789   3.123  48.505  1.00  0.00    +0.000 A 
ENDBRANCH  12  16
ENDBRANCH   1   6
TORSDOF 3
ENDMDL
MODEL 9
REMARK VINA RESULT:    -6.958      1.991      5.280
REMARK INTER + INTRA:          -8.347
REMARK INTER:                  -7.733
REMARK INTRA:                  -0.614
REMARK UNBOUND:                -0.170
REMARK SMILES C/N=N/Nc1ccc2ncnc(-c3ccccc3)c2c1
REMARK SMILES IDX 4 1 3 3 2 4 1 5 5 6 6 7 20 8 7 9 19 10 8 11 12 12 9 13 11 14
REMARK SMILES IDX 10 15 13 16 14 17 18 18 15 19 17 20 16 21
REMARK H PARENT 4 2
ROOT
ATOM      1  N   UNL     1      19.464  -0.479  53.241  1.00  0.00    -0.260 N 
ATOM      2  H   UNL     1      18.802  -0.349  53.998  1.00  0.00    +0.192 HD
ENDROOT
BRANCH   1   3
ATOM      3  N   UNL     1      19.108   0.102  52.081  1.00  0.00    -0.075 NA
ATOM      4  N   UNL     1      18.083  -0.494  51.705  1.00  0.00    -0.174 NA
ATOM      5  C   UNL     1      17.589   0.037  50.435  1.00  0.00    +0.200 C 
ENDBRANCH   1   3
BRANCH   1   6
ATOM      6  C   UNL     1      20.819  -0.496  53.610  1.00  0.00    +0.059 A 
ATOM      7  C   UNL     1      21.303  -1.543  54.393  1.00  0.00    +0.030 A 
ATOM      8  C   UNL     1      21.746   0.436  53.131  1.00  0.00    +0.040 A 
ATOM      9  C   UNL     1      22.659  -1.616  54.732  1.00  0.00    +0.031 A 
ATOM     10  C   UNL     1      23.128   0.360  53.463  1.00  0.00    +0.029 A 
ATOM     11  C   UNL     1      23.578  -0.677  54.288  1.00  0.00    +0.074 A 
ATOM     12  C   UNL     1      24.127   1.256  53.042  1.00  0.00    +0.081 A 
ATOM     13  N   UNL     1      24.855  -0.808  54.666  1.00  0.00    -0.236 NA
ATOM     14  N   UNL     1      25.419   1.150  53.429  1.00  0.00    -0.236 NA
ATOM     15  C   UNL     1      25.714   0.117  54.222  1.00  0.00    +0.223 A 
BRANCH  12  16
ATOM     16  C   UNL     1      23.874   2.395  52.144  1.00  0.00    +0.001 A 
ATOM     17  C   UNL     1      23.591   3.668  52.669  1.00  0.00    +0.010 A 
ATOM     18  C   UNL     1      23.932   2.252  50.747  1.00  0.00    +0.010 A 
ATOM     19  C   UNL     1      23.348   4.755  51.826  1.00  0.00    +0.001 A 
ATOM     20  C   UNL     1      23.691   3.338  49.903  1.00  0.00    +0.001 A 
ATOM     21  C   UNL     1      23.395   4.588  50.444  1.00  0.00    +0.000 A 
ENDBRANCH  12  16
ENDBRANCH   1   6
TORSDOF 3
ENDMDL
