REMARK SMILES CCN(C(=O)c1ccccn1)c1[nH]c(C)cc1C
REMARK SMILES IDX 3 1 2 2 1 3 4 4 5 5 6 6 7 7 11 8 8 9 10 10 9 11 12 12 13 13
REMARK SMILES IDX 17 14 14 15 16 16 18 18 15 19
REMARK H PARENT 13 17
ROOT
ATOM      1  N   UNL     1       0.025  -0.191  -0.148  1.00  0.00    -0.293 N 
ENDROOT
BRANCH   1   2
ATOM      2  C   UNL     1      -0.400  -1.287  -1.037  1.00  0.00    +0.124 C 
ATOM      3  C   UNL     1      -0.328  -2.643  -0.344  1.00  0.00    +0.028 C 
ENDBRANCH   1   2
BRANCH   1   4
ATOM      4  C   UNL     1      -0.855   0.268   0.862  1.00  0.00    +0.277 C 
ATOM      5  O   UNL     1      -0.506   0.603   1.997  1.00  0.00    -0.267 OA
BRANCH   4   6
ATOM      6  C   UNL     1      -2.328   0.312   0.583  1.00  0.00    +0.128 A 
ATOM      7  C   UNL     1      -3.218   0.104   1.634  1.00  0.00    +0.034 A 
ATOM      8  N   UNL     1      -2.729   0.628  -0.677  1.00  0.00    -0.251 NA
ATOM      9  C   UNL     1      -4.583   0.200   1.379  1.00  0.00    +0.004 A 
ATOM     10  C   UNL     1      -4.059   0.720  -0.889  1.00  0.00    +0.112 A 
ATOM     11  C   UNL     1      -5.014   0.512   0.094  1.00  0.00    +0.020 A 
ENDBRANCH   4   6
ENDBRANCH   1   4
BRANCH   1  12
ATOM     12  C   UNL     1       1.378   0.208  -0.067  1.00  0.00    +0.116 A 
ATOM     13  N   UNL     1       2.379  -0.548  -0.641  1.00  0.00    -0.345 N 
ATOM     14  C   UNL     1       1.999   1.333   0.472  1.00  0.00    -0.008 A 
ATOM     15  C   UNL     1       3.612   0.007  -0.422  1.00  0.00    +0.014 A 
ATOM     16  C   UNL     1       3.404   1.179   0.265  1.00  0.00    +0.028 A 
ATOM     17  H   UNL     1       2.234  -1.427  -1.114  1.00  0.00    +0.168 HD
ATOM     18  C   UNL     1       1.392   2.531   1.115  1.00  0.00    +0.048 C 
ATOM     19  C   UNL     1       4.858  -0.635  -0.899  1.00  0.00    +0.064 C 
ENDBRANCH   1  12
TORSDOF 4
