REMARK SMILES Cc1cccc(C=C2C(=O)N(C)c3ncnc(C=C(C#N)C(N)=O)c32)c1
REMARK SMILES IDX 7 1 8 2 9 3 10 4 11 5 12 6 13 7 14 8 15 9 16 10 17 11 25 12
REMARK SMILES IDX 6 13 2 14 3 15 26 16 4 17 5 18 1 19 18 20 19 21 20 22 21 23
REMARK SMILES IDX 22 24 23 25 24 26
REMARK H PARENT 23 27 23 28
ROOT
ATOM      1  C   UNL     1       0.900  -1.458  -0.826  1.00  0.00    +0.022 C 
ATOM      2  C   UNL     1      -0.255  -1.775  -0.218  1.00  0.00    +0.054 C 
ATOM      3  C   UNL     1      -0.758  -3.188  -0.394  1.00  0.00    +0.260 C 
ATOM      4  O   UNL     1      -0.289  -4.040  -1.127  1.00  0.00    -0.269 OA
ATOM      5  N   UNL     1      -1.823  -3.293   0.477  1.00  0.00    -0.295 N 
ATOM      6  C   UNL     1      -2.641  -4.458   0.666  1.00  0.00    +0.155 C 
ATOM      7  C   UNL     1      -2.079  -2.076   1.120  1.00  0.00    +0.147 A 
ATOM      8  N   UNL     1      -3.078  -1.906   1.994  1.00  0.00    -0.218 NA
ATOM      9  C   UNL     1      -3.182  -0.657   2.454  1.00  0.00    +0.224 A 
ATOM     10  N   UNL     1      -2.405   0.383   2.103  1.00  0.00    -0.236 NA
ATOM     11  C   UNL     1      -1.429   0.152   1.190  1.00  0.00    +0.078 A 
ATOM     12  C   UNL     1      -1.177  -1.106   0.702  1.00  0.00    +0.056 A 
ENDROOT
BRANCH   1  13
ATOM     13  C   UNL     1       1.687  -0.234  -0.702  1.00  0.00    -0.025 A 
ATOM     14  C   UNL     1       3.061   1.279   0.619  1.00  0.00    -0.051 A 
ATOM     15  C   UNL     1       3.280   2.056  -0.525  1.00  0.00    +0.003 A 
ATOM     16  C   UNL     1       2.280   0.119   0.516  1.00  0.00    +0.011 A 
ATOM     17  C   UNL     1       2.713   1.692  -1.747  1.00  0.00    +0.001 A 
ATOM     18  C   UNL     1       1.920   0.549  -1.836  1.00  0.00    +0.008 A 
ATOM     19  C   UNL     1       3.711   1.645   1.920  1.00  0.00    +0.044 C 
ENDBRANCH   1  13
BRANCH  11  20
ATOM     20  C   UNL     1      -0.740   1.382   0.816  1.00  0.00    +0.054 C 
ATOM     21  C   UNL     1      -0.879   2.081  -0.329  1.00  0.00    +0.119 C 
ATOM     22  C   UNL     1      -0.196   3.325  -0.448  1.00  0.00    +0.105 C 
ATOM     23  N   UNL     1       0.330   4.353  -0.572  1.00  0.00    -0.192 NA
BRANCH  21  24
ATOM     24  C   UNL     1      -1.743   1.622  -1.462  1.00  0.00    +0.259 C 
ATOM     25  N   UNL     1      -1.825   2.437  -2.553  1.00  0.00    -0.365 N 
ATOM     26  O   UNL     1      -2.365   0.565  -1.463  1.00  0.00    -0.269 OA
ATOM     27  H   UNL     1      -2.419   2.128  -3.312  1.00  0.00    +0.159 HD
ATOM     28  H   UNL     1      -1.368   3.335  -2.654  1.00  0.00    +0.159 HD
ENDBRANCH  21  24
ENDBRANCH  11  20
TORSDOF 3
