REMARK SMILES O=[N+]([O-])c1cc(-c2ccc(-c3ccccn3)[nH]2)ccc1O
REMARK SMILES IDX 4 1 5 2 6 3 18 4 19 5 20 6 2 7 1 8 3 9 21 10 7 12 8 13 17 14
REMARK SMILES IDX 9 15 10 16 11 18 12 19 16 20 13 21 15 22 14 23
REMARK H PARENT 21 11 17 17
ROOT
ATOM      1  C   UNL     1       4.141   0.187  -0.147  1.00  0.00    +0.311 A 
ATOM      2  C   UNL     1       2.865   0.618   0.256  1.00  0.00    +0.100 A 
ATOM      3  C   UNL     1       1.741  -0.191   0.042  1.00  0.00    +0.005 A 
ATOM      4  C   UNL     1       1.918  -1.438  -0.576  1.00  0.00    +0.014 A 
ATOM      5  C   UNL     1       3.187  -1.866  -0.978  1.00  0.00    +0.054 A 
ATOM      6  C   UNL     1       4.302  -1.058  -0.767  1.00  0.00    +0.194 A 
ENDROOT
BRANCH   1   7
ATOM      7  N   UNL     1       5.288   1.063   0.095  1.00  0.00    +0.066 N 
ATOM      8  O   UNL     1       6.400   0.670  -0.297  1.00  0.00    -0.258 OA
ATOM      9  O   UNL     1       5.093   2.140   0.674  1.00  0.00    -0.258 OA
ENDBRANCH   1   7
BRANCH   6  10
ATOM     10  O   UNL     1       5.489  -1.580  -1.202  1.00  0.00    -0.502 OA
ATOM     11  H   UNL     1       6.217  -0.946  -1.025  1.00  0.00    +0.293 HD
ENDBRANCH   6  10
BRANCH   3  12
ATOM     12  C   UNL     1       0.414   0.262   0.464  1.00  0.00    +0.046 A 
ATOM     13  C   UNL     1       0.029   1.087   1.508  1.00  0.00    +0.029 A 
ATOM     14  N   UNL     1      -0.747  -0.085  -0.191  1.00  0.00    -0.353 N 
ATOM     15  C   UNL     1      -1.382   1.218   1.475  1.00  0.00    +0.030 A 
ATOM     16  C   UNL     1      -1.853   0.478   0.406  1.00  0.00    +0.065 A 
ATOM     17  H   UNL     1      -0.818  -0.663  -1.018  1.00  0.00    +0.167 HD
BRANCH  16  18
ATOM     18  C   UNL     1      -3.192   0.239  -0.122  1.00  0.00    +0.086 A 
ATOM     19  C   UNL     1      -4.335   0.792   0.441  1.00  0.00    +0.030 A 
ATOM     20  N   UNL     1      -3.219  -0.571  -1.211  1.00  0.00    -0.255 NA
ATOM     21  C   UNL     1      -5.568   0.503  -0.138  1.00  0.00    +0.004 A 
ATOM     22  C   UNL     1      -4.431  -0.832  -1.749  1.00  0.00    +0.112 A 
ATOM     23  C   UNL     1      -5.620  -0.324  -1.254  1.00  0.00    +0.020 A 
ENDBRANCH  16  18
ENDBRANCH   3  12
TORSDOF 4
