REMARK SMILES C[N+](C)(C)C[C@H](O)COc1ccnc2ccccc12
REMARK SMILES IDX 6 1 5 2 2 3 1 4 3 5 4 6 7 7 8 9 9 10 10 11 11 12 19 13 12 14
REMARK SMILES IDX 18 15 14 16 13 17 17 18 15 19 16 20
REMARK H PARENT 7 8
ROOT
ATOM      1  C   UNL     1      -1.258  -0.166   0.227  1.00  0.00    +0.206 C 
ENDROOT
BRANCH   1   2
ATOM      2  C   UNL     1      -2.607   0.366   0.753  1.00  0.00    +0.299 C 
BRANCH   2   3
ATOM      3  N   UNL     1      -3.835   0.061  -0.151  1.00  0.00    -0.329 N 
ATOM      4  C   UNL     1      -5.080   0.598   0.557  1.00  0.00    +0.334 C 
ATOM      5  C   UNL     1      -3.715   0.742  -1.506  1.00  0.00    +0.334 C 
ATOM      6  C   UNL     1      -4.019  -1.443  -0.356  1.00  0.00    +0.334 C 
ENDBRANCH   2   3
ENDBRANCH   1   2
BRANCH   1   7
ATOM      7  O   UNL     1      -1.259  -1.600   0.236  1.00  0.00    -0.384 OA
ATOM      8  H   UNL     1      -0.330  -1.881   0.098  1.00  0.00    +0.211 HD
ENDBRANCH   1   7
BRANCH   1   9
ATOM      9  C   UNL     1      -0.105   0.328   1.117  1.00  0.00    +0.267 C 
BRANCH   9  10
ATOM     10  O   UNL     1       1.105  -0.133   0.508  1.00  0.00    -0.490 OA
BRANCH  10  11
ATOM     11  C   UNL     1       2.295   0.253   1.078  1.00  0.00    +0.130 A 
ATOM     12  C   UNL     1       2.399   0.919   2.295  1.00  0.00    +0.067 A 
ATOM     13  C   UNL     1       3.468  -0.077   0.357  1.00  0.00    +0.042 A 
ATOM     14  C   UNL     1       3.663   1.243   2.751  1.00  0.00    +0.115 A 
ATOM     15  C   UNL     1       3.458  -0.759  -0.883  1.00  0.00    +0.014 A 
ATOM     16  C   UNL     1       4.705   0.304   0.918  1.00  0.00    +0.074 A 
ATOM     17  N   UNL     1       4.798   0.953   2.089  1.00  0.00    -0.256 NA
ATOM     18  C   UNL     1       4.645  -1.056  -1.550  1.00  0.00    +0.001 A 
ATOM     19  C   UNL     1       5.874  -0.004   0.233  1.00  0.00    +0.029 A 
ATOM     20  C   UNL     1       5.857  -0.677  -0.990  1.00  0.00    +0.002 A 
ENDBRANCH  10  11
ENDBRANCH   9  10
ENDBRANCH   1   9
TORSDOF 6
