REMARK SMILES O=[N+]([O-])c1cc(-c2ccccn2)ccc1O
REMARK SMILES IDX 4 1 5 2 6 3 13 4 14 5 15 6 2 7 1 8 3 9 16 10 7 12 8 13 12 14
REMARK SMILES IDX 9 15 11 16 10 17
REMARK H PARENT 16 11
ROOT
ATOM      1  C   UNL     1      -2.396  -0.335  -0.130  1.00  0.00    +0.311 A 
ATOM      2  C   UNL     1      -1.028  -0.666  -0.197  1.00  0.00    +0.100 A 
ATOM      3  C   UNL     1      -0.036   0.310   0.006  1.00  0.00    +0.007 A 
ATOM      4  C   UNL     1      -0.468   1.620   0.288  1.00  0.00    +0.015 A 
ATOM      5  C   UNL     1      -1.826   1.952   0.354  1.00  0.00    +0.054 A 
ATOM      6  C   UNL     1      -2.795   0.977   0.145  1.00  0.00    +0.194 A 
ENDROOT
BRANCH   1   7
ATOM      7  N   UNL     1      -3.386  -1.392  -0.356  1.00  0.00    +0.066 N 
ATOM      8  O   UNL     1      -2.976  -2.517  -0.672  1.00  0.00    -0.258 OA
ATOM      9  O   UNL     1      -4.583  -1.093  -0.222  1.00  0.00    -0.258 OA
ENDBRANCH   1   7
BRANCH   6  10
ATOM     10  O   UNL     1      -4.089   1.411   0.233  1.00  0.00    -0.502 OA
ATOM     11  H   UNL     1      -4.705   0.658   0.113  1.00  0.00    +0.293 HD
ENDBRANCH   6  10
BRANCH   3  12
ATOM     12  C   UNL     1       1.407  -0.008  -0.057  1.00  0.00    +0.070 A 
ATOM     13  C   UNL     1       1.936  -0.987  -0.899  1.00  0.00    +0.029 A 
ATOM     14  N   UNL     1       2.203   0.725   0.763  1.00  0.00    -0.256 NA
ATOM     15  C   UNL     1       3.310  -1.225  -0.892  1.00  0.00    +0.004 A 
ATOM     16  C   UNL     1       3.530   0.472   0.752  1.00  0.00    +0.111 A 
ATOM     17  C   UNL     1       4.125  -0.484  -0.049  1.00  0.00    +0.020 A 
ENDBRANCH   3  12
TORSDOF 3
