REMARK SMILES O=C(O)c1cc(O)c(O)c(C=Cc2ccccn2)c1
REMARK SMILES IDX 4 1 5 2 6 3 8 4 10 5 19 6 2 7 1 8 3 9 7 11 11 13 12 14 13 15
REMARK SMILES IDX 14 16 18 17 15 18 17 19 16 20 9 21
REMARK H PARENT 3 10 7 12 9 22
ROOT
ATOM      1  C   UNL     1      -3.256   0.976  -0.482  1.00  0.00    +0.064 A 
ATOM      2  C   UNL     1      -3.803   0.542   0.731  1.00  0.00    +0.065 A 
ATOM      3  C   UNL     1      -3.043  -0.266   1.563  1.00  0.00    +0.158 A 
ATOM      4  C   UNL     1      -1.749  -0.651   1.213  1.00  0.00    +0.164 A 
ATOM      5  C   UNL     1      -1.186  -0.219   0.006  1.00  0.00    +0.021 A 
ATOM      6  C   UNL     1      -1.952   0.595  -0.842  1.00  0.00    +0.028 A 
ENDROOT
BRANCH   1   7
ATOM      7  C   UNL     1      -4.089   1.838  -1.355  1.00  0.00    +0.335 C 
ATOM      8  O   UNL     1      -5.221   2.216  -1.118  1.00  0.00    -0.246 OA
BRANCH   7   9
ATOM      9  O   UNL     1      -3.461   2.190  -2.490  1.00  0.00    -0.478 OA
ATOM     10  H   UNL     1      -4.121   2.745  -2.958  1.00  0.00    +0.297 HD
ENDBRANCH   7   9
ENDBRANCH   1   7
BRANCH   3  11
ATOM     11  O   UNL     1      -3.581  -0.691   2.746  1.00  0.00    -0.504 OA
ATOM     12  H   UNL     1      -2.881  -1.242   3.151  1.00  0.00    +0.293 HD
ENDBRANCH   3  11
BRANCH   5  13
ATOM     13  C   UNL     1       0.175  -0.574  -0.400  1.00  0.00    +0.014 C 
ATOM     14  C   UNL     1       1.248   0.028   0.139  1.00  0.00    +0.029 C 
BRANCH  14  15
ATOM     15  C   UNL     1       2.633  -0.300  -0.227  1.00  0.00    +0.063 A 
ATOM     16  C   UNL     1       3.689   0.445   0.291  1.00  0.00    +0.028 A 
ATOM     17  N   UNL     1       2.823  -1.350  -1.059  1.00  0.00    -0.257 NA
ATOM     18  C   UNL     1       4.991   0.103  -0.066  1.00  0.00    +0.004 A 
ATOM     19  C   UNL     1       4.097  -1.658  -1.390  1.00  0.00    +0.111 A 
ATOM     20  C   UNL     1       5.203  -0.968  -0.924  1.00  0.00    +0.020 A 
ENDBRANCH  14  15
ENDBRANCH   5  13
BRANCH   4  21
ATOM     21  O   UNL     1      -1.089  -1.462   2.102  1.00  0.00    -0.504 OA
ATOM     22  H   UNL     1      -0.240  -1.719   1.697  1.00  0.00    +0.293 HD
ENDBRANCH   4  21
TORSDOF 6
