REMARK SMILES N#CC(C#N)=C(C#N)C(N)=Cc1ccc2c(c1)CCC2
REMARK SMILES IDX 9 1 11 2 6 3 1 4 2 5 3 6 4 7 5 8 7 9 8 10 10 11 12 14 13 15
REMARK SMILES IDX 17 16 14 17 16 18 15 19 18 20 20 21 19 22
REMARK H PARENT 10 12 10 13
ROOT
ATOM      1  C   UNL     1       2.320  -0.473  -0.120  1.00  0.00    +0.052 C 
ATOM      2  C   UNL     1       1.379  -0.132   0.784  1.00  0.00    +0.035 C 
ENDROOT
BRANCH   1   3
ATOM      3  C   UNL     1       3.730  -0.249   0.210  1.00  0.00    +0.103 C 
ATOM      4  N   UNL     1       3.258   2.707  -1.586  1.00  0.00    -0.192 NA
ATOM      5  C   UNL     1       3.766   1.863  -0.973  1.00  0.00    +0.112 C 
ATOM      6  C   UNL     1       4.403   0.848  -0.201  1.00  0.00    +0.149 C 
ATOM      7  C   UNL     1       5.775   1.046   0.126  1.00  0.00    +0.112 C 
ATOM      8  N   UNL     1       6.891   1.202   0.397  1.00  0.00    -0.192 NA
ATOM      9  C   UNL     1       4.359  -1.261   1.003  1.00  0.00    +0.103 C 
ATOM     10  N   UNL     1       4.868  -2.081   1.645  1.00  0.00    -0.192 NA
ENDBRANCH   1   3
BRANCH   1  11
ATOM     11  N   UNL     1       2.057  -0.976  -1.381  1.00  0.00    -0.398 N 
ATOM     12  H   UNL     1       1.084  -1.269  -1.492  1.00  0.00    +0.156 HD
ATOM     13  H   UNL     1       2.681  -1.727  -1.671  1.00  0.00    +0.156 HD
ENDBRANCH   1  11
BRANCH   2  14
ATOM     14  C   UNL     1      -0.069  -0.244   0.569  1.00  0.00    -0.023 A 
ATOM     15  C   UNL     1      -0.816  -1.137   1.361  1.00  0.00    +0.008 A 
ATOM     16  C   UNL     1      -0.708   0.536  -0.404  1.00  0.00    +0.012 A 
ATOM     17  C   UNL     1      -2.196  -1.271   1.183  1.00  0.00    +0.004 A 
ATOM     18  C   UNL     1      -2.078   0.404  -0.563  1.00  0.00    -0.044 A 
ATOM     19  C   UNL     1      -2.813  -0.490   0.222  1.00  0.00    -0.045 A 
ATOM     20  C   UNL     1      -2.962   1.097  -1.553  1.00  0.00    +0.036 C 
ATOM     21  C   UNL     1      -4.257  -0.480  -0.172  1.00  0.00    +0.036 C 
ATOM     22  C   UNL     1      -4.347   0.846  -0.940  1.00  0.00    +0.010 C 
ENDBRANCH   2  14
TORSDOF 3
