MODEL 1
REMARK VINA RESULT:    -9.053      0.000      0.000
REMARK INTER + INTRA:         -11.063
REMARK INTER:                 -10.376
REMARK INTRA:                  -0.687
REMARK UNBOUND:                -0.687
REMARK SMILES Cc1cccc(C=C2C(=O)N(C)c3ncnc(-c4ccc(O)cc4)c32)c1
REMARK SMILES IDX 7 1 8 2 9 3 10 4 11 5 12 6 13 7 14 8 15 9 16 10 17 11 25 12
REMARK SMILES IDX 6 13 2 14 3 15 26 16 4 17 5 18 1 19 18 20 19 21 24 22 20 23
REMARK SMILES IDX 23 24 21 25 22 26
REMARK H PARENT 22 27
ROOT
ATOM      1  C   UNL     1      25.593   1.154  52.805  1.00  0.00    +0.022 C 
ATOM      2  C   UNL     1      24.422   0.639  53.214  1.00  0.00    +0.054 C 
ATOM      3  C   UNL     1      24.226  -0.502  54.186  1.00  0.00    +0.260 C 
ATOM      4  O   UNL     1      25.079  -1.121  54.793  1.00  0.00    -0.269 OA
ATOM      5  N   UNL     1      22.855  -0.692  54.232  1.00  0.00    -0.295 N 
ATOM      6  C   UNL     1      22.173  -1.675  55.029  1.00  0.00    +0.155 C 
ATOM      7  C   UNL     1      22.178   0.221  53.419  1.00  0.00    +0.147 A 
ATOM      8  N   UNL     1      20.848   0.260  53.288  1.00  0.00    -0.218 NA
ATOM      9  C   UNL     1      20.416   1.220  52.462  1.00  0.00    +0.224 A 
ATOM     10  N   UNL     1      21.184   2.105  51.800  1.00  0.00    -0.236 NA
ATOM     11  C   UNL     1      22.527   2.026  51.983  1.00  0.00    +0.084 A 
ATOM     12  C   UNL     1      23.081   1.063  52.792  1.00  0.00    +0.057 A 
ENDROOT
BRANCH   1  13
ATOM     13  C   UNL     1      26.938   0.727  53.207  1.00  0.00    -0.025 A 
ATOM     14  C   UNL     1      28.694  -0.957  53.339  1.00  0.00    -0.051 A 
ATOM     15  C   UNL     1      29.556  -0.001  53.885  1.00  0.00    +0.003 A 
ATOM     16  C   UNL     1      27.391  -0.579  52.984  1.00  0.00    +0.011 A 
ATOM     17  C   UNL     1      29.116   1.306  54.098  1.00  0.00    +0.001 A 
ATOM     18  C   UNL     1      27.813   1.669  53.757  1.00  0.00    +0.008 A 
ATOM     19  C   UNL     1      29.170  -2.356  53.087  1.00  0.00    +0.044 C 
ENDBRANCH   1  13
BRANCH  11  20
ATOM     20  C   UNL     1      23.291   3.046  51.267  1.00  0.00    +0.001 A 
ATOM     21  C   UNL     1      23.834   2.776  49.999  1.00  0.00    +0.014 A 
ATOM     22  C   UNL     1      23.488   4.322  51.823  1.00  0.00    +0.014 A 
ATOM     23  C   UNL     1      24.573   3.746  49.314  1.00  0.00    +0.047 A 
ATOM     24  C   UNL     1      24.227   5.290  51.140  1.00  0.00    +0.047 A 
ATOM     25  C   UNL     1      24.765   4.993  49.894  1.00  0.00    +0.115 A 
BRANCH  25  26
ATOM     26  O   UNL     1      25.481   5.968  49.265  1.00  0.00    -0.508 OA
ATOM     27  H   UNL     1      26.421   5.854  49.483  1.00  0.00    +0.293 HD
ENDBRANCH  25  26
ENDBRANCH  11  20
TORSDOF 3
ENDMDL
MODEL 2
REMARK VINA RESULT:    -9.025      1.775      5.688
REMARK INTER + INTRA:         -11.031
REMARK INTER:                 -10.516
REMARK INTRA:                  -0.515
REMARK UNBOUND:                -0.687
REMARK SMILES Cc1cccc(C=C2C(=O)N(C)c3ncnc(-c4ccc(O)cc4)c32)c1
REMARK SMILES IDX 7 1 8 2 9 3 10 4 11 5 12 6 13 7 14 8 15 9 16 10 17 11 25 12
REMARK SMILES IDX 6 13 2 14 3 15 26 16 4 17 5 18 1 19 18 20 19 21 24 22 20 23
REMARK SMILES IDX 23 24 21 25 22 26
REMARK H PARENT 22 27
ROOT
ATOM      1  C   UNL     1      25.010   2.239  51.851  1.00  0.00    +0.022 C 
ATOM      2  C   UNL     1      23.793   1.785  52.194  1.00  0.00    +0.054 C 
ATOM      3  C   UNL     1      22.462   2.317  51.714  1.00  0.00    +0.260 C 
ATOM      4  O   UNL     1      22.258   3.209  50.913  1.00  0.00    -0.269 OA
ATOM      5  N   UNL     1      21.518   1.563  52.391  1.00  0.00    -0.295 N 
ATOM      6  C   UNL     1      20.093   1.696  52.266  1.00  0.00    +0.155 C 
ATOM      7  C   UNL     1      22.116   0.605  53.217  1.00  0.00    +0.147 A 
ATOM      8  N   UNL     1      21.432  -0.258  53.975  1.00  0.00    -0.218 NA
ATOM      9  C   UNL     1      22.208  -1.089  54.679  1.00  0.00    +0.224 A 
ATOM     10  N   UNL     1      23.553  -1.120  54.670  1.00  0.00    -0.236 NA
ATOM     11  C   UNL     1      24.194  -0.229  53.870  1.00  0.00    +0.084 A 
ATOM     12  C   UNL     1      23.495   0.686  53.120  1.00  0.00    +0.057 A 
ENDROOT
BRANCH   1  13
ATOM     13  C   UNL     1      25.318   3.347  50.939  1.00  0.00    -0.025 A 
ATOM     14  C   UNL     1      25.101   5.676  50.259  1.00  0.00    -0.051 A 
ATOM     15  C   UNL     1      26.036   5.456  49.241  1.00  0.00    +0.003 A 
ATOM     16  C   UNL     1      24.762   4.620  51.116  1.00  0.00    +0.011 A 
ATOM     17  C   UNL     1      26.604   4.194  49.067  1.00  0.00    +0.001 A 
ATOM     18  C   UNL     1      26.249   3.144  49.915  1.00  0.00    +0.008 A 
ATOM     19  C   UNL     1      24.506   7.037  50.464  1.00  0.00    +0.044 C 
ENDBRANCH   1  13
BRANCH  11  20
ATOM     20  C   UNL     1      25.650  -0.353  53.880  1.00  0.00    +0.001 A 
ATOM     21  C   UNL     1      26.309  -1.138  52.918  1.00  0.00    +0.014 A 
ATOM     22  C   UNL     1      26.426   0.321  54.840  1.00  0.00    +0.014 A 
ATOM     23  C   UNL     1      27.701  -1.268  52.929  1.00  0.00    +0.047 A 
ATOM     24  C   UNL     1      27.815   0.191  54.852  1.00  0.00    +0.047 A 
ATOM     25  C   UNL     1      28.441  -0.603  53.900  1.00  0.00    +0.115 A 
BRANCH  25  26
ATOM     26  O   UNL     1      29.800  -0.702  53.951  1.00  0.00    -0.508 OA
ATOM     27  H   UNL     1      30.180  -0.089  53.300  1.00  0.00    +0.293 HD
ENDBRANCH  25  26
ENDBRANCH  11  20
TORSDOF 3
ENDMDL
MODEL 3
REMARK VINA RESULT:    -8.940      2.196      5.854
REMARK INTER + INTRA:         -10.933
REMARK INTER:                  -9.829
REMARK INTRA:                  -1.105
REMARK UNBOUND:                -0.687
REMARK SMILES Cc1cccc(C=C2C(=O)N(C)c3ncnc(-c4ccc(O)cc4)c32)c1
REMARK SMILES IDX 7 1 8 2 9 3 10 4 11 5 12 6 13 7 14 8 15 9 16 10 17 11 25 12
REMARK SMILES IDX 6 13 2 14 3 15 26 16 4 17 5 18 1 19 18 20 19 21 24 22 20 23
REMARK SMILES IDX 23 24 21 25 22 26
REMARK H PARENT 22 27
ROOT
ATOM      1  C   UNL     1      23.378   1.831  51.713  1.00  0.00    +0.022 C 
ATOM      2  C   UNL     1      22.563   0.994  52.376  1.00  0.00    +0.054 C 
ATOM      3  C   UNL     1      21.074   0.832  52.171  1.00  0.00    +0.260 C 
ATOM      4  O   UNL     1      20.366   1.391  51.355  1.00  0.00    -0.269 OA
ATOM      5  N   UNL     1      20.687  -0.096  53.124  1.00  0.00    -0.295 N 
ATOM      6  C   UNL     1      19.350  -0.583  53.324  1.00  0.00    +0.155 C 
ATOM      7  C   UNL     1      21.775  -0.547  53.878  1.00  0.00    +0.147 A 
ATOM      8  N   UNL     1      21.679  -1.450  54.859  1.00  0.00    -0.218 NA
ATOM      9  C   UNL     1      22.847  -1.739  55.441  1.00  0.00    +0.224 A 
ATOM     10  N   UNL     1      24.047  -1.219  55.119  1.00  0.00    -0.236 NA
ATOM     11  C   UNL     1      24.084  -0.316  54.106  1.00  0.00    +0.084 A 
ATOM     12  C   UNL     1      22.939   0.070  53.453  1.00  0.00    +0.057 A 
ENDROOT
BRANCH   1  13
ATOM     13  C   UNL     1      23.009   2.769  50.647  1.00  0.00    -0.025 A 
ATOM     14  C   UNL     1      22.398   5.001  49.885  1.00  0.00    -0.051 A 
ATOM     15  C   UNL     1      22.429   4.547  48.562  1.00  0.00    +0.003 A 
ATOM     16  C   UNL     1      22.709   4.109  50.921  1.00  0.00    +0.011 A 
ATOM     17  C   UNL     1      22.741   3.217  48.280  1.00  0.00    +0.001 A 
ATOM     18  C   UNL     1      23.033   2.332  49.319  1.00  0.00    +0.008 A 
ATOM     19  C   UNL     1      22.087   6.436  50.190  1.00  0.00    +0.044 C 
ENDBRANCH   1  13
BRANCH  11  20
ATOM     20  C   UNL     1      25.425   0.170  53.785  1.00  0.00    +0.001 A 
ATOM     21  C   UNL     1      26.335  -0.643  53.089  1.00  0.00    +0.014 A 
ATOM     22  C   UNL     1      25.830   1.465  54.154  1.00  0.00    +0.014 A 
ATOM     23  C   UNL     1      27.622  -0.187  52.788  1.00  0.00    +0.047 A 
ATOM     24  C   UNL     1      27.115   1.922  53.855  1.00  0.00    +0.047 A 
ATOM     25  C   UNL     1      28.001   1.092  53.178  1.00  0.00    +0.115 A 
BRANCH  25  26
ATOM     26  O   UNL     1      29.245   1.579  52.909  1.00  0.00    -0.508 OA
ATOM     27  H   UNL     1      29.219   2.549  52.968  1.00  0.00    +0.293 HD
ENDBRANCH  25  26
ENDBRANCH  11  20
TORSDOF 3
ENDMDL
MODEL 4
REMARK VINA RESULT:    -8.933      1.936      4.841
REMARK INTER + INTRA:         -10.926
REMARK INTER:                 -10.544
REMARK INTRA:                  -0.382
REMARK UNBOUND:                -0.687
REMARK SMILES Cc1cccc(C=C2C(=O)N(C)c3ncnc(-c4ccc(O)cc4)c32)c1
REMARK SMILES IDX 7 1 8 2 9 3 10 4 11 5 12 6 13 7 14 8 15 9 16 10 17 11 25 12
REMARK SMILES IDX 6 13 2 14 3 15 26 16 4 17 5 18 1 19 18 20 19 21 24 22 20 23
REMARK SMILES IDX 23 24 21 25 22 26
REMARK H PARENT 22 27
ROOT
ATOM      1  C   UNL     1      25.373   1.158  52.677  1.00  0.00    +0.022 C 
ATOM      2  C   UNL     1      25.073   2.075  51.743  1.00  0.00    +0.054 C 
ATOM      3  C   UNL     1      26.052   2.904  50.943  1.00  0.00    +0.260 C 
ATOM      4  O   UNL     1      27.267   2.859  50.972  1.00  0.00    -0.269 OA
ATOM      5  N   UNL     1      25.259   3.732  50.167  1.00  0.00    -0.295 N 
ATOM      6  C   UNL     1      25.737   4.709  49.228  1.00  0.00    +0.155 C 
ATOM      7  C   UNL     1      23.897   3.490  50.376  1.00  0.00    +0.147 A 
ATOM      8  N   UNL     1      22.918   4.147  49.747  1.00  0.00    -0.218 NA
ATOM      9  C   UNL     1      21.691   3.748  50.097  1.00  0.00    +0.224 A 
ATOM     10  N   UNL     1      21.391   2.778  50.981  1.00  0.00    -0.236 NA
ATOM     11  C   UNL     1      22.428   2.136  51.579  1.00  0.00    +0.084 A 
ATOM     12  C   UNL     1      23.730   2.482  51.310  1.00  0.00    +0.057 A 
ENDROOT
BRANCH   1  13
ATOM     13  C   UNL     1      26.710   0.756  53.128  1.00  0.00    -0.025 A 
ATOM     14  C   UNL     1      28.501  -0.887  53.303  1.00  0.00    -0.051 A 
ATOM     15  C   UNL     1      29.315   0.080  53.903  1.00  0.00    +0.003 A 
ATOM     16  C   UNL     1      27.205  -0.534  52.900  1.00  0.00    +0.011 A 
ATOM     17  C   UNL     1      28.834   1.371  54.121  1.00  0.00    +0.001 A 
ATOM     18  C   UNL     1      27.537   1.708  53.732  1.00  0.00    +0.008 A 
ATOM     19  C   UNL     1      29.023  -2.268  53.045  1.00  0.00    +0.044 C 
ENDBRANCH   1  13
BRANCH  11  20
ATOM     20  C   UNL     1      22.026   1.068  52.493  1.00  0.00    +0.001 A 
ATOM     21  C   UNL     1      21.144   1.329  53.555  1.00  0.00    +0.014 A 
ATOM     22  C   UNL     1      22.500  -0.244  52.321  1.00  0.00    +0.014 A 
ATOM     23  C   UNL     1      20.763   0.313  54.438  1.00  0.00    +0.047 A 
ATOM     24  C   UNL     1      22.121  -1.259  53.202  1.00  0.00    +0.047 A 
ATOM     25  C   UNL     1      21.260  -0.972  54.254  1.00  0.00    +0.115 A 
BRANCH  25  26
ATOM     26  O   UNL     1      20.919  -1.994  55.090  1.00  0.00    -0.508 OA
ATOM     27  H   UNL     1      21.273  -1.803  55.974  1.00  0.00    +0.293 HD
ENDBRANCH  25  26
ENDBRANCH  11  20
TORSDOF 3
ENDMDL
MODEL 5
REMARK VINA RESULT:    -8.548      1.536      2.297
REMARK INTER + INTRA:         -10.484
REMARK INTER:                 -10.499
REMARK INTRA:                   0.015
REMARK UNBOUND:                -0.687
REMARK SMILES Cc1cccc(C=C2C(=O)N(C)c3ncnc(-c4ccc(O)cc4)c32)c1
REMARK SMILES IDX 7 1 8 2 9 3 10 4 11 5 12 6 13 7 14 8 15 9 16 10 17 11 25 12
REMARK SMILES IDX 6 13 2 14 3 15 26 16 4 17 5 18 1 19 18 20 19 21 24 22 20 23
REMARK SMILES IDX 23 24 21 25 22 26
REMARK H PARENT 22 27
ROOT
ATOM      1  C   UNL     1      26.283   1.837  51.858  1.00  0.00    +0.022 C 
ATOM      2  C   UNL     1      24.970   1.556  51.882  1.00  0.00    +0.054 C 
ATOM      3  C   UNL     1      24.276   0.555  52.778  1.00  0.00    +0.260 C 
ATOM      4  O   UNL     1      24.767  -0.132  53.652  1.00  0.00    -0.269 OA
ATOM      5  N   UNL     1      22.949   0.591  52.382  1.00  0.00    -0.295 N 
ATOM      6  C   UNL     1      21.885  -0.192  52.947  1.00  0.00    +0.155 C 
ATOM      7  C   UNL     1      22.738   1.522  51.359  1.00  0.00    +0.147 A 
ATOM      8  N   UNL     1      21.548   1.760  50.800  1.00  0.00    -0.218 NA
ATOM      9  C   UNL     1      21.578   2.695  49.845  1.00  0.00    +0.224 A 
ATOM     10  N   UNL     1      22.662   3.381  49.438  1.00  0.00    -0.236 NA
ATOM     11  C   UNL     1      23.842   3.106  50.051  1.00  0.00    +0.084 A 
ATOM     12  C   UNL     1      23.929   2.147  51.031  1.00  0.00    +0.057 A 
ENDROOT
BRANCH   1  13
ATOM     13  C   UNL     1      27.332   1.240  52.692  1.00  0.00    -0.025 A 
ATOM     14  C   UNL     1      28.714  -0.654  53.356  1.00  0.00    -0.051 A 
ATOM     15  C   UNL     1      29.425   0.182  54.223  1.00  0.00    +0.003 A 
ATOM     16  C   UNL     1      27.680  -0.111  52.579  1.00  0.00    +0.011 A 
ATOM     17  C   UNL     1      29.093   1.533  54.332  1.00  0.00    +0.001 A 
ATOM     18  C   UNL     1      28.053   2.060  53.567  1.00  0.00    +0.008 A 
ATOM     19  C   UNL     1      29.083  -2.100  53.218  1.00  0.00    +0.044 C 
ENDBRANCH   1  13
BRANCH  11  20
ATOM     20  C   UNL     1      24.963   3.921  49.587  1.00  0.00    +0.001 A 
ATOM     21  C   UNL     1      24.792   5.290  49.320  1.00  0.00    +0.014 A 
ATOM     22  C   UNL     1      26.240   3.358  49.410  1.00  0.00    +0.014 A 
ATOM     23  C   UNL     1      25.859   6.072  48.866  1.00  0.00    +0.047 A 
ATOM     24  C   UNL     1      27.305   4.137  48.957  1.00  0.00    +0.047 A 
ATOM     25  C   UNL     1      27.106   5.485  48.685  1.00  0.00    +0.115 A 
BRANCH  25  26
ATOM     26  O   UNL     1      28.174   6.207  48.243  1.00  0.00    -0.508 OA
ATOM     27  H   UNL     1      28.720   6.455  49.007  1.00  0.00    +0.293 HD
ENDBRANCH  25  26
ENDBRANCH  11  20
TORSDOF 3
ENDMDL
MODEL 6
REMARK VINA RESULT:    -8.497      1.408      1.849
REMARK INTER + INTRA:         -10.426
REMARK INTER:                  -9.600
REMARK INTRA:                  -0.826
REMARK UNBOUND:                -0.687
REMARK SMILES Cc1cccc(C=C2C(=O)N(C)c3ncnc(-c4ccc(O)cc4)c32)c1
REMARK SMILES IDX 7 1 8 2 9 3 10 4 11 5 12 6 13 7 14 8 15 9 16 10 17 11 25 12
REMARK SMILES IDX 6 13 2 14 3 15 26 16 4 17 5 18 1 19 18 20 19 21 24 22 20 23
REMARK SMILES IDX 23 24 21 25 22 26
REMARK H PARENT 22 27
ROOT
ATOM      1  C   UNL     1      24.637   1.903  52.464  1.00  0.00    +0.022 C 
ATOM      2  C   UNL     1      23.318   1.705  52.621  1.00  0.00    +0.054 C 
ATOM      3  C   UNL     1      22.658   0.567  53.365  1.00  0.00    +0.260 C 
ATOM      4  O   UNL     1      23.194  -0.335  53.980  1.00  0.00    -0.269 OA
ATOM      5  N   UNL     1      21.300   0.775  53.191  1.00  0.00    -0.295 N 
ATOM      6  C   UNL     1      20.251  -0.052  53.721  1.00  0.00    +0.155 C 
ATOM      7  C   UNL     1      21.044   1.930  52.445  1.00  0.00    +0.147 A 
ATOM      8  N   UNL     1      19.818   2.365  52.139  1.00  0.00    -0.218 NA
ATOM      9  C   UNL     1      19.809   3.494  51.424  1.00  0.00    +0.224 A 
ATOM     10  N   UNL     1      20.890   4.189  51.022  1.00  0.00    -0.236 NA
ATOM     11  C   UNL     1      22.109   3.707  51.373  1.00  0.00    +0.084 A 
ATOM     12  C   UNL     1      22.235   2.542  52.090  1.00  0.00    +0.057 A 
ENDROOT
BRANCH   1  13
ATOM     13  C   UNL     1      25.727   1.065  52.976  1.00  0.00    -0.025 A 
ATOM     14  C   UNL     1      27.025  -0.997  52.957  1.00  0.00    -0.051 A 
ATOM     15  C   UNL     1      27.896  -0.446  53.904  1.00  0.00    +0.003 A 
ATOM     16  C   UNL     1      25.954  -0.226  52.484  1.00  0.00    +0.011 A 
ATOM     17  C   UNL     1      27.685   0.845  54.389  1.00  0.00    +0.001 A 
ATOM     18  C   UNL     1      26.606   1.598  53.925  1.00  0.00    +0.008 A 
ATOM     19  C   UNL     1      27.263  -2.375  52.416  1.00  0.00    +0.044 C 
ENDBRANCH   1  13
BRANCH  11  20
ATOM     20  C   UNL     1      23.231   4.538  50.939  1.00  0.00    +0.001 A 
ATOM     21  C   UNL     1      24.038   4.144  49.858  1.00  0.00    +0.014 A 
ATOM     22  C   UNL     1      23.519   5.754  51.583  1.00  0.00    +0.014 A 
ATOM     23  C   UNL     1      25.118   4.930  49.445  1.00  0.00    +0.047 A 
ATOM     24  C   UNL     1      24.597   6.540  51.171  1.00  0.00    +0.047 A 
ATOM     25  C   UNL     1      25.389   6.120  50.109  1.00  0.00    +0.115 A 
BRANCH  25  26
ATOM     26  O   UNL     1      26.432   6.918  49.743  1.00  0.00    -0.508 OA
ATOM     27  H   UNL     1      26.927   7.169  50.542  1.00  0.00    +0.293 HD
ENDBRANCH  25  26
ENDBRANCH  11  20
TORSDOF 3
ENDMDL
MODEL 7
REMARK VINA RESULT:    -8.284      2.530      6.534
REMARK INTER + INTRA:         -10.181
REMARK INTER:                 -10.532
REMARK INTRA:                   0.351
REMARK UNBOUND:                -0.687
REMARK SMILES Cc1cccc(C=C2C(=O)N(C)c3ncnc(-c4ccc(O)cc4)c32)c1
REMARK SMILES IDX 7 1 8 2 9 3 10 4 11 5 12 6 13 7 14 8 15 9 16 10 17 11 25 12
REMARK SMILES IDX 6 13 2 14 3 15 26 16 4 17 5 18 1 19 18 20 19 21 24 22 20 23
REMARK SMILES IDX 23 24 21 25 22 26
REMARK H PARENT 22 27
ROOT
ATOM      1  C   UNL     1      23.453   1.193  52.258  1.00  0.00    +0.022 C 
ATOM      2  C   UNL     1      23.512   2.240  51.419  1.00  0.00    +0.054 C 
ATOM      3  C   UNL     1      22.342   3.020  50.863  1.00  0.00    +0.260 C 
ATOM      4  O   UNL     1      21.160   2.867  51.104  1.00  0.00    -0.269 OA
ATOM      5  N   UNL     1      22.914   3.950  50.012  1.00  0.00    -0.295 N 
ATOM      6  C   UNL     1      22.199   4.931  49.243  1.00  0.00    +0.155 C 
ATOM      7  C   UNL     1      24.309   3.852  49.998  1.00  0.00    +0.147 A 
ATOM      8  N   UNL     1      25.105   4.638  49.266  1.00  0.00    -0.218 NA
ATOM      9  C   UNL     1      26.407   4.372  49.413  1.00  0.00    +0.224 A 
ATOM     10  N   UNL     1      26.941   3.427  50.210  1.00  0.00    -0.236 NA
ATOM     11  C   UNL     1      26.084   2.668  50.940  1.00  0.00    +0.084 A 
ATOM     12  C   UNL     1      24.724   2.842  50.849  1.00  0.00    +0.057 A 
ENDROOT
BRANCH   1  13
ATOM     13  C   UNL     1      22.248   0.574  52.820  1.00  0.00    -0.025 A 
ATOM     14  C   UNL     1      19.943  -0.190  52.611  1.00  0.00    -0.051 A 
ATOM     15  C   UNL     1      20.014  -0.724  53.902  1.00  0.00    +0.003 A 
ATOM     16  C   UNL     1      21.073   0.441  52.070  1.00  0.00    +0.011 A 
ATOM     17  C   UNL     1      21.185  -0.608  54.650  1.00  0.00    +0.001 A 
ATOM     18  C   UNL     1      22.299   0.036  54.110  1.00  0.00    +0.008 A 
ATOM     19  C   UNL     1      18.694  -0.334  51.794  1.00  0.00    +0.044 C 
ENDBRANCH   1  13
BRANCH  11  20
ATOM     20  C   UNL     1      26.739   1.695  51.813  1.00  0.00    +0.001 A 
ATOM     21  C   UNL     1      26.537   0.317  51.627  1.00  0.00    +0.014 A 
ATOM     22  C   UNL     1      27.594   2.114  52.847  1.00  0.00    +0.014 A 
ATOM     23  C   UNL     1      27.154  -0.618  52.465  1.00  0.00    +0.047 A 
ATOM     24  C   UNL     1      28.209   1.183  53.684  1.00  0.00    +0.047 A 
ATOM     25  C   UNL     1      27.982  -0.174  53.489  1.00  0.00    +0.115 A 
BRANCH  25  26
ATOM     26  O   UNL     1      28.602  -1.048  54.332  1.00  0.00    -0.508 OA
ATOM     27  H   UNL     1      28.410  -0.786  55.248  1.00  0.00    +0.293 HD
ENDBRANCH  25  26
ENDBRANCH  11  20
TORSDOF 3
ENDMDL
MODEL 8
REMARK VINA RESULT:    -7.965      2.119      2.794
REMARK INTER + INTRA:          -9.816
REMARK INTER:                  -8.708
REMARK INTRA:                  -1.108
REMARK UNBOUND:                -0.687
REMARK SMILES Cc1cccc(C=C2C(=O)N(C)c3ncnc(-c4ccc(O)cc4)c32)c1
REMARK SMILES IDX 7 1 8 2 9 3 10 4 11 5 12 6 13 7 14 8 15 9 16 10 17 11 25 12
REMARK SMILES IDX 6 13 2 14 3 15 26 16 4 17 5 18 1 19 18 20 19 21 24 22 20 23
REMARK SMILES IDX 23 24 21 25 22 26
REMARK H PARENT 22 27
ROOT
ATOM      1  C   UNL     1      23.180   1.380  51.824  1.00  0.00    +0.022 C 
ATOM      2  C   UNL     1      22.044   0.744  52.157  1.00  0.00    +0.054 C 
ATOM      3  C   UNL     1      21.846  -0.202  53.319  1.00  0.00    +0.260 C 
ATOM      4  O   UNL     1      22.654  -0.520  54.171  1.00  0.00    -0.269 OA
ATOM      5  N   UNL     1      20.535  -0.633  53.200  1.00  0.00    -0.295 N 
ATOM      6  C   UNL     1      19.873  -1.552  54.084  1.00  0.00    +0.155 C 
ATOM      7  C   UNL     1      19.891  -0.039  52.111  1.00  0.00    +0.147 A 
ATOM      8  N   UNL     1      18.619  -0.276  51.776  1.00  0.00    -0.218 NA
ATOM      9  C   UNL     1      18.208   0.406  50.702  1.00  0.00    +0.224 A 
ATOM     10  N   UNL     1      18.944   1.273  49.981  1.00  0.00    -0.236 NA
ATOM     11  C   UNL     1      20.225   1.484  50.377  1.00  0.00    +0.084 A 
ATOM     12  C   UNL     1      20.757   0.819  51.454  1.00  0.00    +0.057 A 
ENDROOT
BRANCH   1  13
ATOM     13  C   UNL     1      24.474   1.299  52.509  1.00  0.00    -0.025 A 
ATOM     14  C   UNL     1      26.573   0.155  52.981  1.00  0.00    -0.051 A 
ATOM     15  C   UNL     1      26.988   1.252  53.744  1.00  0.00    +0.003 A 
ATOM     16  C   UNL     1      25.322   0.195  52.350  1.00  0.00    +0.011 A 
ATOM     17  C   UNL     1      26.155   2.361  53.896  1.00  0.00    +0.001 A 
ATOM     18  C   UNL     1      24.905   2.385  53.278  1.00  0.00    +0.008 A 
ATOM     19  C   UNL     1      27.475  -1.029  52.796  1.00  0.00    +0.044 C 
ENDBRANCH   1  13
BRANCH  11  20
ATOM     20  C   UNL     1      20.946   2.471  49.573  1.00  0.00    +0.001 A 
ATOM     21  C   UNL     1      21.599   2.091  48.389  1.00  0.00    +0.014 A 
ATOM     22  C   UNL     1      20.991   3.822  49.960  1.00  0.00    +0.014 A 
ATOM     23  C   UNL     1      22.297   3.028  47.621  1.00  0.00    +0.047 A 
ATOM     24  C   UNL     1      21.689   4.759  49.196  1.00  0.00    +0.047 A 
ATOM     25  C   UNL     1      22.338   4.354  48.036  1.00  0.00    +0.115 A 
BRANCH  25  26
ATOM     26  O   UNL     1      23.009   5.303  47.322  1.00  0.00    -0.508 OA
ATOM     27  H   UNL     1      23.820   5.538  47.803  1.00  0.00    +0.293 HD
ENDBRANCH  25  26
ENDBRANCH  11  20
TORSDOF 3
ENDMDL
MODEL 9
REMARK VINA RESULT:    -7.596      3.069      7.153
REMARK INTER + INTRA:          -9.394
REMARK INTER:                  -8.299
REMARK INTRA:                  -1.095
REMARK UNBOUND:                -0.687
REMARK SMILES Cc1cccc(C=C2C(=O)N(C)c3ncnc(-c4ccc(O)cc4)c32)c1
REMARK SMILES IDX 7 1 8 2 9 3 10 4 11 5 12 6 13 7 14 8 15 9 16 10 17 11 25 12
REMARK SMILES IDX 6 13 2 14 3 15 26 16 4 17 5 18 1 19 18 20 19 21 24 22 20 23
REMARK SMILES IDX 23 24 21 25 22 26
REMARK H PARENT 22 27
ROOT
ATOM      1  C   UNL     1      19.709   1.237  51.025  1.00  0.00    +0.022 C 
ATOM      2  C   UNL     1      20.553   0.641  51.884  1.00  0.00    +0.054 C 
ATOM      3  C   UNL     1      20.186  -0.321  52.991  1.00  0.00    +0.260 C 
ATOM      4  O   UNL     1      19.085  -0.753  53.271  1.00  0.00    -0.269 OA
ATOM      5  N   UNL     1      21.386  -0.603  53.622  1.00  0.00    -0.295 N 
ATOM      6  C   UNL     1      21.554  -1.482  54.746  1.00  0.00    +0.155 C 
ATOM      7  C   UNL     1      22.459   0.055  53.013  1.00  0.00    +0.147 A 
ATOM      8  N   UNL     1      23.728  -0.051  53.420  1.00  0.00    -0.218 NA
ATOM      9  C   UNL     1      24.591   0.660  52.687  1.00  0.00    +0.224 A 
ATOM     10  N   UNL     1      24.287   1.425  51.621  1.00  0.00    -0.236 NA
ATOM     11  C   UNL     1      22.984   1.484  51.245  1.00  0.00    +0.084 A 
ATOM     12  C   UNL     1      22.010   0.809  51.942  1.00  0.00    +0.057 A 
ENDROOT
BRANCH   1  13
ATOM     13  C   UNL     1      18.250   1.088  50.969  1.00  0.00    -0.025 A 
ATOM     14  C   UNL     1      16.004   1.833  51.549  1.00  0.00    -0.051 A 
ATOM     15  C   UNL     1      15.472   0.832  50.730  1.00  0.00    +0.003 A 
ATOM     16  C   UNL     1      17.396   1.967  51.648  1.00  0.00    +0.011 A 
ATOM     17  C   UNL     1      16.316  -0.038  50.040  1.00  0.00    +0.001 A 
ATOM     18  C   UNL     1      17.700   0.091  50.157  1.00  0.00    +0.008 A 
ATOM     19  C   UNL     1      15.100   2.786  52.273  1.00  0.00    +0.044 C 
ENDBRANCH   1  13
BRANCH  11  20
ATOM     20  C   UNL     1      22.739   2.297  50.056  1.00  0.00    +0.001 A 
ATOM     21  C   UNL     1      22.886   3.693  50.100  1.00  0.00    +0.014 A 
ATOM     22  C   UNL     1      22.364   1.701  48.839  1.00  0.00    +0.014 A 
ATOM     23  C   UNL     1      22.644   4.477  48.967  1.00  0.00    +0.047 A 
ATOM     24  C   UNL     1      22.121   2.481  47.707  1.00  0.00    +0.047 A 
ATOM     25  C   UNL     1      22.259   3.862  47.782  1.00  0.00    +0.115 A 
BRANCH  25  26
ATOM     26  O   UNL     1      22.010   4.585  46.653  1.00  0.00    -0.508 OA
ATOM     27  H   UNL     1      21.587   4.004  45.999  1.00  0.00    +0.293 HD
ENDBRANCH  25  26
ENDBRANCH  11  20
TORSDOF 3
ENDMDL
