MODEL 1
REMARK VINA RESULT:    -7.692      0.000      0.000
REMARK INTER + INTRA:          -9.150
REMARK INTER:                  -8.816
REMARK INTRA:                  -0.334
REMARK UNBOUND:                -0.334
REMARK SMILES N#CC(C#N)=C(C#N)C(N)=Cc1ccc2c(c1)CCC2
REMARK SMILES IDX 9 1 11 2 6 3 1 4 2 5 3 6 4 7 5 8 7 9 8 10 10 11 12 14 13 15
REMARK SMILES IDX 17 16 14 17 16 18 15 19 18 20 20 21 19 22
REMARK H PARENT 10 12 10 13
ROOT
ATOM      1  C   UNL     1      25.235   0.364  53.541  1.00  0.00    +0.052 C 
ATOM      2  C   UNL     1      24.174   1.198  53.566  1.00  0.00    +0.035 C 
ENDROOT
BRANCH   1   3
ATOM      3  C   UNL     1      26.502   0.816  54.121  1.00  0.00    +0.103 C 
ATOM      4  N   UNL     1      26.800   2.538  51.099  1.00  0.00    -0.192 NA
ATOM      5  C   UNL     1      27.042   2.120  52.154  1.00  0.00    +0.112 C 
ATOM      6  C   UNL     1      27.348   1.636  53.459  1.00  0.00    +0.149 C 
ATOM      7  C   UNL     1      28.578   2.061  54.037  1.00  0.00    +0.112 C 
ATOM      8  N   UNL     1      29.577   2.405  54.514  1.00  0.00    -0.192 NA
ATOM      9  C   UNL     1      26.795   0.344  55.440  1.00  0.00    +0.103 C 
ATOM     10  N   UNL     1      27.031  -0.040  56.508  1.00  0.00    -0.192 NA
ENDBRANCH   1   3
BRANCH   1  11
ATOM     11  N   UNL     1      25.241  -0.887  52.951  1.00  0.00    -0.398 N 
ATOM     12  H   UNL     1      24.435  -1.454  53.225  1.00  0.00    +0.156 HD
ATOM     13  H   UNL     1      26.101  -1.413  53.095  1.00  0.00    +0.156 HD
ENDBRANCH   1  11
BRANCH   2  14
ATOM     14  C   UNL     1      22.864   0.904  52.973  1.00  0.00    -0.023 A 
ATOM     15  C   UNL     1      21.867   0.305  53.768  1.00  0.00    +0.008 A 
ATOM     16  C   UNL     1      22.597   1.226  51.636  1.00  0.00    +0.012 A 
ATOM     17  C   UNL     1      20.608   0.010  53.237  1.00  0.00    +0.004 A 
ATOM     18  C   UNL     1      21.342   0.940  51.124  1.00  0.00    -0.044 A 
ATOM     19  C   UNL     1      20.359   0.338  51.916  1.00  0.00    -0.045 A 
ATOM     20  C   UNL     1      20.845   1.156  49.728  1.00  0.00    +0.036 C 
ATOM     21  C   UNL     1      19.114   0.094  51.123  1.00  0.00    +0.036 C 
ATOM     22  C   UNL     1      19.328   1.039  49.933  1.00  0.00    +0.010 C 
ENDBRANCH   2  14
TORSDOF 3
ENDMDL
MODEL 2
REMARK VINA RESULT:    -7.680      3.406      6.021
REMARK INTER + INTRA:          -9.136
REMARK INTER:                  -8.830
REMARK INTRA:                  -0.306
REMARK UNBOUND:                -0.334
REMARK SMILES N#CC(C#N)=C(C#N)C(N)=Cc1ccc2c(c1)CCC2
REMARK SMILES IDX 9 1 11 2 6 3 1 4 2 5 3 6 4 7 5 8 7 9 8 10 10 11 12 14 13 15
REMARK SMILES IDX 17 16 14 17 16 18 15 19 18 20 20 21 19 22
REMARK H PARENT 10 12 10 13
ROOT
ATOM      1  C   UNL     1      24.496   1.804  52.707  1.00  0.00    +0.052 C 
ATOM      2  C   UNL     1      24.443   1.877  51.361  1.00  0.00    +0.035 C 
ENDROOT
BRANCH   1   3
ATOM      3  C   UNL     1      24.047   0.574  53.365  1.00  0.00    +0.103 C 
ATOM      4  N   UNL     1      20.871   1.877  52.732  1.00  0.00    -0.192 NA
ATOM      5  C   UNL     1      21.717   1.176  53.107  1.00  0.00    +0.112 C 
ATOM      6  C   UNL     1      22.740   0.291  53.555  1.00  0.00    +0.149 C 
ATOM      7  C   UNL     1      22.324  -0.908  54.201  1.00  0.00    +0.112 C 
ATOM      8  N   UNL     1      21.991  -1.886  54.727  1.00  0.00    -0.192 NA
ATOM      9  C   UNL     1      25.078  -0.322  53.794  1.00  0.00    +0.103 C 
ATOM     10  N   UNL     1      25.913  -1.046  54.142  1.00  0.00    -0.192 NA
ENDBRANCH   1   3
BRANCH   1  11
ATOM     11  N   UNL     1      24.894   2.835  53.538  1.00  0.00    -0.398 N 
ATOM     12  H   UNL     1      24.683   3.756  53.149  1.00  0.00    +0.156 HD
ATOM     13  H   UNL     1      25.872   2.792  53.818  1.00  0.00    +0.156 HD
ENDBRANCH   1  11
BRANCH   2  14
ATOM     14  C   UNL     1      24.802   3.061  50.572  1.00  0.00    -0.023 A 
ATOM     15  C   UNL     1      23.829   4.051  50.332  1.00  0.00    +0.008 A 
ATOM     16  C   UNL     1      26.101   3.217  50.070  1.00  0.00    +0.012 A 
ATOM     17  C   UNL     1      24.134   5.191  49.583  1.00  0.00    +0.004 A 
ATOM     18  C   UNL     1      26.396   4.357  49.340  1.00  0.00    -0.044 A 
ATOM     19  C   UNL     1      25.423   5.332  49.099  1.00  0.00    -0.045 A 
ATOM     20  C   UNL     1      27.690   4.719  48.679  1.00  0.00    +0.036 C 
ATOM     21  C   UNL     1      25.975   6.437  48.253  1.00  0.00    +0.036 C 
ATOM     22  C   UNL     1      27.484   6.220  48.428  1.00  0.00    +0.010 C 
ENDBRANCH   2  14
TORSDOF 3
ENDMDL
MODEL 3
REMARK VINA RESULT:    -7.503      1.053      2.667
REMARK INTER + INTRA:          -8.933
REMARK INTER:                  -8.930
REMARK INTRA:                  -0.003
REMARK UNBOUND:                -0.334
REMARK SMILES N#CC(C#N)=C(C#N)C(N)=Cc1ccc2c(c1)CCC2
REMARK SMILES IDX 9 1 11 2 6 3 1 4 2 5 3 6 4 7 5 8 7 9 8 10 10 11 12 14 13 15
REMARK SMILES IDX 17 16 14 17 16 18 15 19 18 20 20 21 19 22
REMARK H PARENT 10 12 10 13
ROOT
ATOM      1  C   UNL     1      24.851   0.542  53.015  1.00  0.00    +0.052 C 
ATOM      2  C   UNL     1      23.670   1.191  53.054  1.00  0.00    +0.035 C 
ENDROOT
BRANCH   1   3
ATOM      3  C   UNL     1      26.080   1.322  52.847  1.00  0.00    +0.103 C 
ATOM      4  N   UNL     1      26.878  -0.027  55.966  1.00  0.00    -0.192 NA
ATOM      5  C   UNL     1      26.944   0.593  54.988  1.00  0.00    +0.112 C 
ATOM      6  C   UNL     1      27.055   1.346  53.782  1.00  0.00    +0.149 C 
ATOM      7  C   UNL     1      28.240   2.114  53.603  1.00  0.00    +0.112 C 
ATOM      8  N   UNL     1      29.204   2.740  53.450  1.00  0.00    -0.192 NA
ATOM      9  C   UNL     1      26.196   2.059  51.625  1.00  0.00    +0.103 C 
ATOM     10  N   UNL     1      26.289   2.656  50.636  1.00  0.00    -0.192 NA
ENDBRANCH   1   3
BRANCH   1  11
ATOM     11  N   UNL     1      24.998  -0.832  53.065  1.00  0.00    -0.398 N 
ATOM     12  H   UNL     1      25.008  -1.191  54.022  1.00  0.00    +0.156 HD
ATOM     13  H   UNL     1      25.805  -1.186  52.553  1.00  0.00    +0.156 HD
ENDBRANCH   1  11
BRANCH   2  14
ATOM     14  C   UNL     1      22.358   0.539  53.158  1.00  0.00    -0.023 A 
ATOM     15  C   UNL     1      22.077  -0.266  54.279  1.00  0.00    +0.008 A 
ATOM     16  C   UNL     1      21.390   0.722  52.163  1.00  0.00    +0.012 A 
ATOM     17  C   UNL     1      20.839  -0.903  54.411  1.00  0.00    +0.004 A 
ATOM     18  C   UNL     1      20.163   0.096  52.310  1.00  0.00    -0.044 A 
ATOM     19  C   UNL     1      19.892  -0.708  53.422  1.00  0.00    -0.045 A 
ATOM     20  C   UNL     1      18.999   0.114  51.368  1.00  0.00    +0.036 C 
ATOM     21  C   UNL     1      18.522  -1.305  53.325  1.00  0.00    +0.036 C 
ATOM     22  C   UNL     1      17.871  -0.388  52.280  1.00  0.00    +0.010 C 
ENDBRANCH   2  14
TORSDOF 3
ENDMDL
MODEL 4
REMARK VINA RESULT:    -7.342      2.906      6.851
REMARK INTER + INTRA:          -8.749
REMARK INTER:                  -8.593
REMARK INTRA:                  -0.156
REMARK UNBOUND:                -0.334
REMARK SMILES N#CC(C#N)=C(C#N)C(N)=Cc1ccc2c(c1)CCC2
REMARK SMILES IDX 9 1 11 2 6 3 1 4 2 5 3 6 4 7 5 8 7 9 8 10 10 11 12 14 13 15
REMARK SMILES IDX 17 16 14 17 16 18 15 19 18 20 20 21 19 22
REMARK H PARENT 10 12 10 13
ROOT
ATOM      1  C   UNL     1      23.660   1.329  52.150  1.00  0.00    +0.052 C 
ATOM      2  C   UNL     1      24.138   0.518  53.116  1.00  0.00    +0.035 C 
ENDROOT
BRANCH   1   3
ATOM      3  C   UNL     1      22.245   1.707  52.182  1.00  0.00    +0.103 C 
ATOM      4  N   UNL     1      23.528   4.947  51.966  1.00  0.00    -0.192 NA
ATOM      5  C   UNL     1      22.779   4.065  52.056  1.00  0.00    +0.112 C 
ATOM      6  C   UNL     1      21.841   2.996  52.145  1.00  0.00    +0.149 C 
ATOM      7  C   UNL     1      20.460   3.345  52.182  1.00  0.00    +0.112 C 
ATOM      8  N   UNL     1      19.335   3.622  52.210  1.00  0.00    -0.192 NA
ATOM      9  C   UNL     1      21.307   0.629  52.250  1.00  0.00    +0.103 C 
ATOM     10  N   UNL     1      20.547  -0.245  52.305  1.00  0.00    -0.192 NA
ENDBRANCH   1   3
BRANCH   1  11
ATOM     11  N   UNL     1      24.397   1.797  51.077  1.00  0.00    -0.398 N 
ATOM     12  H   UNL     1      24.933   1.059  50.616  1.00  0.00    +0.156 HD
ATOM     13  H   UNL     1      25.007   2.582  51.299  1.00  0.00    +0.156 HD
ENDBRANCH   1  11
BRANCH   2  14
ATOM     14  C   UNL     1      25.515   0.011  53.179  1.00  0.00    -0.023 A 
ATOM     15  C   UNL     1      25.799  -1.272  52.673  1.00  0.00    +0.008 A 
ATOM     16  C   UNL     1      26.540   0.795  53.724  1.00  0.00    +0.012 A 
ATOM     17  C   UNL     1      27.098  -1.788  52.718  1.00  0.00    +0.004 A 
ATOM     18  C   UNL     1      27.825   0.278  53.752  1.00  0.00    -0.044 A 
ATOM     19  C   UNL     1      28.100  -0.999  53.255  1.00  0.00    -0.045 A 
ATOM     20  C   UNL     1      29.061   0.910  54.314  1.00  0.00    +0.036 C 
ATOM     21  C   UNL     1      29.545  -1.342  53.440  1.00  0.00    +0.036 C 
ATOM     22  C   UNL     1      30.154   0.048  53.667  1.00  0.00    +0.010 C 
ENDBRANCH   2  14
TORSDOF 3
ENDMDL
MODEL 5
REMARK VINA RESULT:    -7.290      2.654      4.838
REMARK INTER + INTRA:          -8.689
REMARK INTER:                  -8.385
REMARK INTRA:                  -0.303
REMARK UNBOUND:                -0.334
REMARK SMILES N#CC(C#N)=C(C#N)C(N)=Cc1ccc2c(c1)CCC2
REMARK SMILES IDX 9 1 11 2 6 3 1 4 2 5 3 6 4 7 5 8 7 9 8 10 10 11 12 14 13 15
REMARK SMILES IDX 17 16 14 17 16 18 15 19 18 20 20 21 19 22
REMARK H PARENT 10 12 10 13
ROOT
ATOM      1  C   UNL     1      23.884   3.393  50.843  1.00  0.00    +0.052 C 
ATOM      2  C   UNL     1      23.486   2.144  50.524  1.00  0.00    +0.035 C 
ENDROOT
BRANCH   1   3
ATOM      3  C   UNL     1      24.819   4.085  49.952  1.00  0.00    +0.103 C 
ATOM      4  N   UNL     1      27.213   2.239  51.698  1.00  0.00    -0.192 NA
ATOM      5  C   UNL     1      26.730   2.986  50.953  1.00  0.00    +0.112 C 
ATOM      6  C   UNL     1      26.155   3.893  50.016  1.00  0.00    +0.149 C 
ATOM      7  C   UNL     1      27.048   4.578  49.144  1.00  0.00    +0.112 C 
ATOM      8  N   UNL     1      27.770   5.138  48.430  1.00  0.00    -0.192 NA
ATOM      9  C   UNL     1      24.235   4.978  48.998  1.00  0.00    +0.103 C 
ATOM     10  N   UNL     1      23.761   5.702  48.226  1.00  0.00    -0.192 NA
ENDBRANCH   1   3
BRANCH   1  11
ATOM     11  N   UNL     1      23.519   4.068  51.994  1.00  0.00    -0.398 N 
ATOM     12  H   UNL     1      23.850   5.035  52.004  1.00  0.00    +0.156 HD
ATOM     13  H   UNL     1      23.788   3.599  52.857  1.00  0.00    +0.156 HD
ENDBRANCH   1  11
BRANCH   2  14
ATOM     14  C   UNL     1      22.603   1.310  51.349  1.00  0.00    -0.023 A 
ATOM     15  C   UNL     1      21.259   1.139  50.962  1.00  0.00    +0.008 A 
ATOM     16  C   UNL     1      23.089   0.680  52.502  1.00  0.00    +0.012 A 
ATOM     17  C   UNL     1      20.389   0.353  51.724  1.00  0.00    +0.004 A 
ATOM     18  C   UNL     1      22.220  -0.107  53.242  1.00  0.00    -0.044 A 
ATOM     19  C   UNL     1      20.886  -0.267  52.857  1.00  0.00    -0.045 A 
ATOM     20  C   UNL     1      22.500  -0.840  54.517  1.00  0.00    +0.036 C 
ATOM     21  C   UNL     1      20.148  -1.121  53.840  1.00  0.00    +0.036 C 
ATOM     22  C   UNL     1      21.311  -1.809  54.569  1.00  0.00    +0.010 C 
ENDBRANCH   2  14
TORSDOF 3
ENDMDL
MODEL 6
REMARK VINA RESULT:    -7.257      3.952      6.666
REMARK INTER + INTRA:          -8.652
REMARK INTER:                  -8.268
REMARK INTRA:                  -0.383
REMARK UNBOUND:                -0.334
REMARK SMILES N#CC(C#N)=C(C#N)C(N)=Cc1ccc2c(c1)CCC2
REMARK SMILES IDX 9 1 11 2 6 3 1 4 2 5 3 6 4 7 5 8 7 9 8 10 10 11 12 14 13 15
REMARK SMILES IDX 17 16 14 17 16 18 15 19 18 20 20 21 19 22
REMARK H PARENT 10 12 10 13
ROOT
ATOM      1  C   UNL     1      24.047   2.700  51.938  1.00  0.00    +0.052 C 
ATOM      2  C   UNL     1      24.224   2.790  50.603  1.00  0.00    +0.035 C 
ENDROOT
BRANCH   1   3
ATOM      3  C   UNL     1      23.105   1.707  52.460  1.00  0.00    +0.103 C 
ATOM      4  N   UNL     1      26.009  -0.140  53.044  1.00  0.00    -0.192 NA
ATOM      5  C   UNL     1      24.889   0.157  52.986  1.00  0.00    +0.112 C 
ATOM      6  C   UNL     1      23.509   0.512  52.944  1.00  0.00    +0.149 C 
ATOM      7  C   UNL     1      22.578  -0.443  53.443  1.00  0.00    +0.112 C 
ATOM      8  N   UNL     1      21.815  -1.215  53.850  1.00  0.00    -0.192 NA
ATOM      9  C   UNL     1      21.723   2.076  52.435  1.00  0.00    +0.103 C 
ATOM     10  N   UNL     1      20.603   2.376  52.414  1.00  0.00    -0.192 NA
ENDBRANCH   1   3
BRANCH   1  11
ATOM     11  N   UNL     1      24.653   3.522  52.870  1.00  0.00    -0.398 N 
ATOM     12  H   UNL     1      25.373   3.039  53.411  1.00  0.00    +0.156 HD
ATOM     13  H   UNL     1      24.003   3.992  53.499  1.00  0.00    +0.156 HD
ENDBRANCH   1  11
BRANCH   2  14
ATOM     14  C   UNL     1      25.087   3.772  49.937  1.00  0.00    -0.023 A 
ATOM     15  C   UNL     1      26.423   3.432  49.648  1.00  0.00    +0.008 A 
ATOM     16  C   UNL     1      24.589   5.032  49.578  1.00  0.00    +0.012 A 
ATOM     17  C   UNL     1      27.274   4.343  49.016  1.00  0.00    +0.004 A 
ATOM     18  C   UNL     1      25.438   5.922  48.940  1.00  0.00    -0.044 A 
ATOM     19  C   UNL     1      26.766   5.581  48.663  1.00  0.00    -0.045 A 
ATOM     20  C   UNL     1      25.144   7.323  48.501  1.00  0.00    +0.036 C 
ATOM     21  C   UNL     1      27.484   6.723  48.015  1.00  0.00    +0.036 C 
ATOM     22  C   UNL     1      26.305   7.579  47.530  1.00  0.00    +0.010 C 
ENDBRANCH   2  14
TORSDOF 3
ENDMDL
MODEL 7
REMARK VINA RESULT:    -7.040      4.103      6.784
REMARK INTER + INTRA:          -8.403
REMARK INTER:                  -8.041
REMARK INTRA:                  -0.361
REMARK UNBOUND:                -0.334
REMARK SMILES N#CC(C#N)=C(C#N)C(N)=Cc1ccc2c(c1)CCC2
REMARK SMILES IDX 9 1 11 2 6 3 1 4 2 5 3 6 4 7 5 8 7 9 8 10 10 11 12 14 13 15
REMARK SMILES IDX 17 16 14 17 16 18 15 19 18 20 20 21 19 22
REMARK H PARENT 10 12 10 13
ROOT
ATOM      1  C   UNL     1      23.995   2.664  51.990  1.00  0.00    +0.052 C 
ATOM      2  C   UNL     1      24.205   2.724  50.659  1.00  0.00    +0.035 C 
ENDROOT
BRANCH   1   3
ATOM      3  C   UNL     1      23.078   1.648  52.515  1.00  0.00    +0.103 C 
ATOM      4  N   UNL     1      20.647   4.035  51.754  1.00  0.00    -0.192 NA
ATOM      5  C   UNL     1      21.149   3.060  52.134  1.00  0.00    +0.112 C 
ATOM      6  C   UNL     1      21.744   1.846  52.585  1.00  0.00    +0.149 C 
ATOM      7  C   UNL     1      20.869   0.848  53.103  1.00  0.00    +0.112 C 
ATOM      8  N   UNL     1      20.162   0.031  53.523  1.00  0.00    -0.192 NA
ATOM      9  C   UNL     1      23.678   0.423  52.947  1.00  0.00    +0.103 C 
ATOM     10  N   UNL     1      24.164  -0.570  53.297  1.00  0.00    -0.192 NA
ENDBRANCH   1   3
BRANCH   1  11
ATOM     11  N   UNL     1      24.541   3.535  52.915  1.00  0.00    -0.398 N 
ATOM     12  H   UNL     1      23.857   4.202  53.278  1.00  0.00    +0.156 HD
ATOM     13  H   UNL     1      25.368   4.030  52.586  1.00  0.00    +0.156 HD
ENDBRANCH   1  11
BRANCH   2  14
ATOM     14  C   UNL     1      25.047   3.722  49.988  1.00  0.00    -0.023 A 
ATOM     15  C   UNL     1      26.390   3.410  49.703  1.00  0.00    +0.008 A 
ATOM     16  C   UNL     1      24.522   4.968  49.621  1.00  0.00    +0.012 A 
ATOM     17  C   UNL     1      27.222   4.336  49.067  1.00  0.00    +0.004 A 
ATOM     18  C   UNL     1      25.352   5.873  48.980  1.00  0.00    -0.044 A 
ATOM     19  C   UNL     1      26.687   5.560  48.706  1.00  0.00    -0.045 A 
ATOM     20  C   UNL     1      25.027   7.265  48.533  1.00  0.00    +0.036 C 
ATOM     21  C   UNL     1      27.380   6.714  48.053  1.00  0.00    +0.036 C 
ATOM     22  C   UNL     1      26.184   7.541  47.562  1.00  0.00    +0.010 C 
ENDBRANCH   2  14
TORSDOF 3
ENDMDL
MODEL 8
REMARK VINA RESULT:    -6.965      2.984      7.084
REMARK INTER + INTRA:          -8.316
REMARK INTER:                  -8.034
REMARK INTRA:                  -0.282
REMARK UNBOUND:                -0.334
REMARK SMILES N#CC(C#N)=C(C#N)C(N)=Cc1ccc2c(c1)CCC2
REMARK SMILES IDX 9 1 11 2 6 3 1 4 2 5 3 6 4 7 5 8 7 9 8 10 10 11 12 14 13 15
REMARK SMILES IDX 17 16 14 17 16 18 15 19 18 20 20 21 19 22
REMARK H PARENT 10 12 10 13
ROOT
ATOM      1  C   UNL     1      23.276   2.325  51.857  1.00  0.00    +0.052 C 
ATOM      2  C   UNL     1      23.819   1.952  53.034  1.00  0.00    +0.035 C 
ENDROOT
BRANCH   1   3
ATOM      3  C   UNL     1      21.985   3.018  51.862  1.00  0.00    +0.103 C 
ATOM      4  N   UNL     1      20.721  -0.204  52.323  1.00  0.00    -0.192 NA
ATOM      5  C   UNL     1      20.771   0.945  52.168  1.00  0.00    +0.112 C 
ATOM      6  C   UNL     1      20.813   2.360  52.002  1.00  0.00    +0.149 C 
ATOM      7  C   UNL     1      19.567   3.050  52.001  1.00  0.00    +0.112 C 
ATOM      8  N   UNL     1      18.556   3.618  52.000  1.00  0.00    -0.192 NA
ATOM      9  C   UNL     1      22.033   4.441  51.716  1.00  0.00    +0.103 C 
ATOM     10  N   UNL     1      22.073   5.593  51.598  1.00  0.00    -0.192 NA
ENDBRANCH   1   3
BRANCH   1  11
ATOM     11  N   UNL     1      23.822   2.054  50.615  1.00  0.00    -0.398 N 
ATOM     12  H   UNL     1      24.662   2.605  50.427  1.00  0.00    +0.156 HD
ATOM     13  H   UNL     1      23.167   2.145  49.841  1.00  0.00    +0.156 HD
ENDBRANCH   1  11
BRANCH   2  14
ATOM     14  C   UNL     1      25.073   1.203  53.178  1.00  0.00    -0.023 A 
ATOM     15  C   UNL     1      25.072  -0.189  52.968  1.00  0.00    +0.008 A 
ATOM     16  C   UNL     1      26.264   1.863  53.510  1.00  0.00    +0.012 A 
ATOM     17  C   UNL     1      26.247  -0.935  53.098  1.00  0.00    +0.004 A 
ATOM     18  C   UNL     1      27.425   1.115  53.624  1.00  0.00    -0.044 A 
ATOM     19  C   UNL     1      27.415  -0.268  53.421  1.00  0.00    -0.045 A 
ATOM     20  C   UNL     1      28.793   1.590  54.002  1.00  0.00    +0.036 C 
ATOM     21  C   UNL     1      28.777  -0.848  53.646  1.00  0.00    +0.036 C 
ATOM     22  C   UNL     1      29.655   0.406  53.541  1.00  0.00    +0.010 C 
ENDBRANCH   2  14
TORSDOF 3
ENDMDL
MODEL 9
REMARK VINA RESULT:    -6.894      2.392      3.677
REMARK INTER + INTRA:          -8.235
REMARK INTER:                  -7.840
REMARK INTRA:                  -0.394
REMARK UNBOUND:                -0.334
REMARK SMILES N#CC(C#N)=C(C#N)C(N)=Cc1ccc2c(c1)CCC2
REMARK SMILES IDX 9 1 11 2 6 3 1 4 2 5 3 6 4 7 5 8 7 9 8 10 10 11 12 14 13 15
REMARK SMILES IDX 17 16 14 17 16 18 15 19 18 20 20 21 19 22
REMARK H PARENT 10 12 10 13
ROOT
ATOM      1  C   UNL     1      23.481   2.327  51.616  1.00  0.00    +0.052 C 
ATOM      2  C   UNL     1      23.041   1.075  51.376  1.00  0.00    +0.035 C 
ENDROOT
BRANCH   1   3
ATOM      3  C   UNL     1      24.799   2.721  51.111  1.00  0.00    +0.103 C 
ATOM      4  N   UNL     1      22.935   4.081  48.491  1.00  0.00    -0.192 NA
ATOM      5  C   UNL     1      23.837   3.756  49.146  1.00  0.00    +0.112 C 
ATOM      6  C   UNL     1      24.957   3.386  49.946  1.00  0.00    +0.149 C 
ATOM      7  C   UNL     1      26.247   3.756  49.469  1.00  0.00    +0.112 C 
ATOM      8  N   UNL     1      27.299   4.057  49.088  1.00  0.00    -0.192 NA
ATOM      9  C   UNL     1      25.918   2.365  51.930  1.00  0.00    +0.103 C 
ATOM     10  N   UNL     1      26.824   2.077  52.592  1.00  0.00    -0.192 NA
ENDBRANCH   1   3
BRANCH   1  11
ATOM     11  N   UNL     1      22.801   3.272  52.363  1.00  0.00    -0.398 N 
ATOM     12  H   UNL     1      22.158   2.852  53.037  1.00  0.00    +0.156 HD
ATOM     13  H   UNL     1      22.313   3.972  51.807  1.00  0.00    +0.156 HD
ENDBRANCH   1  11
BRANCH   2  14
ATOM     14  C   UNL     1      21.772   0.523  51.868  1.00  0.00    -0.023 A 
ATOM     15  C   UNL     1      21.727  -0.068  53.146  1.00  0.00    +0.008 A 
ATOM     16  C   UNL     1      20.612   0.593  51.085  1.00  0.00    +0.012 A 
ATOM     17  C   UNL     1      20.537  -0.604  53.646  1.00  0.00    +0.004 A 
ATOM     18  C   UNL     1      19.436   0.070  51.596  1.00  0.00    -0.044 A 
ATOM     19  C   UNL     1      19.399  -0.522  52.863  1.00  0.00    -0.045 A 
ATOM     20  C   UNL     1      18.095  -0.003  50.934  1.00  0.00    +0.036 C 
ATOM     21  C   UNL     1      18.031  -1.049  53.164  1.00  0.00    +0.036 C 
ATOM     22  C   UNL     1      17.185  -0.283  52.138  1.00  0.00    +0.010 C 
ENDBRANCH   2  14
TORSDOF 3
ENDMDL
