MODEL 1
REMARK VINA RESULT:    -7.515      0.000      0.000
REMARK INTER + INTRA:          -9.792
REMARK INTER:                  -9.273
REMARK INTRA:                  -0.520
REMARK UNBOUND:                -0.520
REMARK SMILES O=[N+]([O-])c1cc(-c2cc(O)c(O)c(O)c2)ccc1O
REMARK SMILES IDX 4 1 5 2 6 3 16 4 17 5 18 6 2 7 1 8 3 9 19 10 7 12 8 13 15 14
REMARK SMILES IDX 9 15 13 16 11 17 10 18 14 20 12 22
REMARK H PARENT 19 11 10 19 14 21 12 23
ROOT
ATOM      1  C   UNL     1      22.526   0.055  53.698  1.00  0.00    +0.311 A 
ATOM      2  C   UNL     1      23.860  -0.338  53.871  1.00  0.00    +0.098 A 
ATOM      3  C   UNL     1      24.847   0.147  53.000  1.00  0.00    -0.011 A 
ATOM      4  C   UNL     1      24.451   1.028  51.974  1.00  0.00    +0.013 A 
ATOM      5  C   UNL     1      23.114   1.420  51.817  1.00  0.00    +0.054 A 
ATOM      6  C   UNL     1      22.143   0.932  52.685  1.00  0.00    +0.194 A 
ENDROOT
BRANCH   1   7
ATOM      7  N   UNL     1      21.537  -0.482  54.606  1.00  0.00    +0.066 N 
ATOM      8  O   UNL     1      21.645  -1.675  54.923  1.00  0.00    -0.258 OA
ATOM      9  O   UNL     1      20.698   0.311  55.054  1.00  0.00    -0.258 OA
ENDBRANCH   1   7
BRANCH   6  10
ATOM     10  O   UNL     1      20.846   1.327  52.552  1.00  0.00    -0.502 OA
ATOM     11  H   UNL     1      20.453   1.480  53.429  1.00  0.00    +0.293 HD
ENDBRANCH   6  10
BRANCH   3  12
ATOM     12  C   UNL     1      26.256  -0.253  53.151  1.00  0.00    -0.011 A 
ATOM     13  C   UNL     1      26.653  -1.584  52.920  1.00  0.00    +0.059 A 
ATOM     14  C   UNL     1      27.238   0.686  53.533  1.00  0.00    +0.059 A 
ATOM     15  C   UNL     1      27.985  -1.957  53.068  1.00  0.00    +0.162 A 
ATOM     16  C   UNL     1      28.568   0.293  53.676  1.00  0.00    +0.162 A 
ATOM     17  C   UNL     1      28.938  -1.024  53.444  1.00  0.00    +0.200 A 
BRANCH  15  18
ATOM     18  O   UNL     1      28.347  -3.253  52.840  1.00  0.00    -0.504 OA
ATOM     19  H   UNL     1      28.815  -3.230  51.980  1.00  0.00    +0.293 HD
ENDBRANCH  15  18
BRANCH  16  20
ATOM     20  O   UNL     1      29.548   1.172  54.048  1.00  0.00    -0.504 OA
ATOM     21  H   UNL     1      29.832   0.952  54.953  1.00  0.00    +0.293 HD
ENDBRANCH  16  20
BRANCH  17  22
ATOM     22  O   UNL     1      30.240  -1.419  53.582  1.00  0.00    -0.502 OA
ATOM     23  H   UNL     1      30.178  -2.317  53.968  1.00  0.00    +0.293 HD
ENDBRANCH  17  22
ENDBRANCH   3  12
TORSDOF 6
ENDMDL
MODEL 2
REMARK VINA RESULT:    -7.505      1.845      2.887
REMARK INTER + INTRA:          -9.780
REMARK INTER:                  -9.187
REMARK INTRA:                  -0.593
REMARK UNBOUND:                -0.520
REMARK SMILES O=[N+]([O-])c1cc(-c2cc(O)c(O)c(O)c2)ccc1O
REMARK SMILES IDX 4 1 5 2 6 3 16 4 17 5 18 6 2 7 1 8 3 9 19 10 7 12 8 13 15 14
REMARK SMILES IDX 9 15 13 16 11 17 10 18 14 20 12 22
REMARK H PARENT 19 11 10 19 14 21 12 23
ROOT
ATOM      1  C   UNL     1      21.286   0.645  53.095  1.00  0.00    +0.311 A 
ATOM      2  C   UNL     1      22.632   1.006  52.940  1.00  0.00    +0.098 A 
ATOM      3  C   UNL     1      23.633   0.236  53.551  1.00  0.00    -0.011 A 
ATOM      4  C   UNL     1      23.239  -0.889  54.301  1.00  0.00    +0.013 A 
ATOM      5  C   UNL     1      21.889  -1.244  54.441  1.00  0.00    +0.054 A 
ATOM      6  C   UNL     1      20.905  -0.473  53.832  1.00  0.00    +0.194 A 
ENDROOT
BRANCH   1   7
ATOM      7  N   UNL     1      20.285   1.476  52.464  1.00  0.00    +0.066 N 
ATOM      8  O   UNL     1      19.611   0.966  51.558  1.00  0.00    -0.258 OA
ATOM      9  O   UNL     1      20.129   2.615  52.927  1.00  0.00    -0.258 OA
ENDBRANCH   1   7
BRANCH   6  10
ATOM     10  O   UNL     1      19.593  -0.825  53.945  1.00  0.00    -0.502 OA
ATOM     11  H   UNL     1      19.494  -1.529  54.609  1.00  0.00    +0.293 HD
ENDBRANCH   6  10
BRANCH   3  12
ATOM     12  C   UNL     1      25.055   0.593  53.414  1.00  0.00    -0.011 A 
ATOM     13  C   UNL     1      26.042  -0.088  54.153  1.00  0.00    +0.059 A 
ATOM     14  C   UNL     1      25.461   1.627  52.542  1.00  0.00    +0.059 A 
ATOM     15  C   UNL     1      27.382   0.257  54.022  1.00  0.00    +0.162 A 
ATOM     16  C   UNL     1      26.809   1.958  52.425  1.00  0.00    +0.162 A 
ATOM     17  C   UNL     1      27.765   1.274  53.163  1.00  0.00    +0.200 A 
BRANCH  15  18
ATOM     18  O   UNL     1      28.321  -0.416  54.749  1.00  0.00    -0.504 OA
ATOM     19  H   UNL     1      28.996  -0.684  54.092  1.00  0.00    +0.293 HD
ENDBRANCH  15  18
BRANCH  16  20
ATOM     20  O   UNL     1      27.242   2.956  51.595  1.00  0.00    -0.504 OA
ATOM     21  H   UNL     1      27.955   3.443  52.044  1.00  0.00    +0.293 HD
ENDBRANCH  16  20
BRANCH  17  22
ATOM     22  O   UNL     1      29.091   1.592  53.054  1.00  0.00    -0.502 OA
ATOM     23  H   UNL     1      29.474   0.852  52.538  1.00  0.00    +0.293 HD
ENDBRANCH  17  22
ENDBRANCH   3  12
TORSDOF 6
ENDMDL
MODEL 3
REMARK VINA RESULT:    -7.482      1.842      3.132
REMARK INTER + INTRA:          -9.751
REMARK INTER:                  -9.161
REMARK INTRA:                  -0.590
REMARK UNBOUND:                -0.520
REMARK SMILES O=[N+]([O-])c1cc(-c2cc(O)c(O)c(O)c2)ccc1O
REMARK SMILES IDX 4 1 5 2 6 3 16 4 17 5 18 6 2 7 1 8 3 9 19 10 7 12 8 13 15 14
REMARK SMILES IDX 9 15 13 16 11 17 10 18 14 20 12 22
REMARK H PARENT 19 11 10 19 14 21 12 23
ROOT
ATOM      1  C   UNL     1      21.329   0.674  53.104  1.00  0.00    +0.311 A 
ATOM      2  C   UNL     1      22.678   1.024  52.956  1.00  0.00    +0.098 A 
ATOM      3  C   UNL     1      23.670   0.251  53.579  1.00  0.00    -0.011 A 
ATOM      4  C   UNL     1      23.263  -0.865  54.335  1.00  0.00    +0.013 A 
ATOM      5  C   UNL     1      21.909  -1.210  54.468  1.00  0.00    +0.054 A 
ATOM      6  C   UNL     1      20.934  -0.436  53.847  1.00  0.00    +0.194 A 
ENDROOT
BRANCH   1   7
ATOM      7  N   UNL     1      20.338   1.507  52.460  1.00  0.00    +0.066 N 
ATOM      8  O   UNL     1      19.702   1.012  51.519  1.00  0.00    -0.258 OA
ATOM      9  O   UNL     1      20.151   2.632  52.945  1.00  0.00    -0.258 OA
ENDBRANCH   1   7
BRANCH   6  10
ATOM     10  O   UNL     1      19.620  -0.778  53.954  1.00  0.00    -0.502 OA
ATOM     11  H   UNL     1      19.212  -0.809  53.071  1.00  0.00    +0.293 HD
ENDBRANCH   6  10
BRANCH   3  12
ATOM     12  C   UNL     1      25.095   0.598  53.449  1.00  0.00    -0.011 A 
ATOM     13  C   UNL     1      25.509   1.623  52.577  1.00  0.00    +0.059 A 
ATOM     14  C   UNL     1      26.078  -0.092  54.192  1.00  0.00    +0.059 A 
ATOM     15  C   UNL     1      26.857   1.943  52.456  1.00  0.00    +0.162 A 
ATOM     16  C   UNL     1      27.424   0.242  54.057  1.00  0.00    +0.162 A 
ATOM     17  C   UNL     1      27.810   1.257  53.192  1.00  0.00    +0.200 A 
BRANCH  15  18
ATOM     18  O   UNL     1      27.235   2.940  51.604  1.00  0.00    -0.504 OA
ATOM     19  H   UNL     1      27.167   3.758  52.138  1.00  0.00    +0.293 HD
ENDBRANCH  15  18
BRANCH  16  20
ATOM     20  O   UNL     1      28.406  -0.404  54.755  1.00  0.00    -0.504 OA
ATOM     21  H   UNL     1      29.258  -0.240  54.313  1.00  0.00    +0.293 HD
ENDBRANCH  16  20
BRANCH  17  22
ATOM     22  O   UNL     1      29.128   1.592  53.052  1.00  0.00    -0.502 OA
ATOM     23  H   UNL     1      29.609   0.873  53.513  1.00  0.00    +0.293 HD
ENDBRANCH  17  22
ENDBRANCH   3  12
TORSDOF 6
ENDMDL
MODEL 4
REMARK VINA RESULT:    -7.410      2.218      6.463
REMARK INTER + INTRA:          -9.663
REMARK INTER:                  -9.073
REMARK INTRA:                  -0.590
REMARK UNBOUND:                -0.520
REMARK SMILES O=[N+]([O-])c1cc(-c2cc(O)c(O)c(O)c2)ccc1O
REMARK SMILES IDX 4 1 5 2 6 3 16 4 17 5 18 6 2 7 1 8 3 9 19 10 7 12 8 13 15 14
REMARK SMILES IDX 9 15 13 16 11 17 10 18 14 20 12 22
REMARK H PARENT 19 11 10 19 14 21 12 23
ROOT
ATOM      1  C   UNL     1      27.267   0.579  54.052  1.00  0.00    +0.311 A 
ATOM      2  C   UNL     1      25.919   0.200  54.113  1.00  0.00    +0.098 A 
ATOM      3  C   UNL     1      25.015   0.690  53.159  1.00  0.00    -0.011 A 
ATOM      4  C   UNL     1      25.508   1.552  52.160  1.00  0.00    +0.013 A 
ATOM      5  C   UNL     1      26.861   1.916  52.105  1.00  0.00    +0.054 A 
ATOM      6  C   UNL     1      27.749   1.426  53.057  1.00  0.00    +0.194 A 
ENDROOT
BRANCH   1   7
ATOM      7  N   UNL     1      28.162   0.065  55.066  1.00  0.00    +0.066 N 
ATOM      8  O   UNL     1      27.869   0.288  56.249  1.00  0.00    -0.258 OA
ATOM      9  O   UNL     1      29.116  -0.621  54.675  1.00  0.00    -0.258 OA
ENDBRANCH   1   7
BRANCH   6  10
ATOM     10  O   UNL     1      29.069   1.758  52.996  1.00  0.00    -0.502 OA
ATOM     11  H   UNL     1      29.360   2.119  53.851  1.00  0.00    +0.293 HD
ENDBRANCH   6  10
BRANCH   3  12
ATOM     12  C   UNL     1      23.591   0.317  53.200  1.00  0.00    -0.011 A 
ATOM     13  C   UNL     1      22.678   0.860  52.276  1.00  0.00    +0.059 A 
ATOM     14  C   UNL     1      23.108  -0.590  54.169  1.00  0.00    +0.059 A 
ATOM     15  C   UNL     1      21.334   0.507  52.322  1.00  0.00    +0.162 A 
ATOM     16  C   UNL     1      21.757  -0.932  54.200  1.00  0.00    +0.162 A 
ATOM     17  C   UNL     1      20.875  -0.384  53.279  1.00  0.00    +0.200 A 
BRANCH  15  18
ATOM     18  O   UNL     1      20.468   1.047  51.417  1.00  0.00    -0.504 OA
ATOM     19  H   UNL     1      19.579   0.837  51.771  1.00  0.00    +0.293 HD
ENDBRANCH  15  18
BRANCH  16  20
ATOM     20  O   UNL     1      21.250  -1.803  55.124  1.00  0.00    -0.504 OA
ATOM     21  H   UNL     1      21.040  -1.306  55.934  1.00  0.00    +0.293 HD
ENDBRANCH  16  20
BRANCH  17  22
ATOM     22  O   UNL     1      19.548  -0.713  53.302  1.00  0.00    -0.502 OA
ATOM     23  H   UNL     1      19.538  -1.681  53.145  1.00  0.00    +0.293 HD
ENDBRANCH  17  22
ENDBRANCH   3  12
TORSDOF 6
ENDMDL
MODEL 5
REMARK VINA RESULT:    -7.396      0.566      2.032
REMARK INTER + INTRA:          -9.645
REMARK INTER:                  -9.175
REMARK INTRA:                  -0.470
REMARK UNBOUND:                -0.520
REMARK SMILES O=[N+]([O-])c1cc(-c2cc(O)c(O)c(O)c2)ccc1O
REMARK SMILES IDX 4 1 5 2 6 3 16 4 17 5 18 6 2 7 1 8 3 9 19 10 7 12 8 13 15 14
REMARK SMILES IDX 9 15 13 16 11 17 10 18 14 20 12 22
REMARK H PARENT 19 11 10 19 14 21 12 23
ROOT
ATOM      1  C   UNL     1      22.443  -0.067  53.491  1.00  0.00    +0.311 A 
ATOM      2  C   UNL     1      23.772  -0.495  53.619  1.00  0.00    +0.098 A 
ATOM      3  C   UNL     1      24.806   0.266  53.054  1.00  0.00    -0.011 A 
ATOM      4  C   UNL     1      24.462   1.452  52.376  1.00  0.00    +0.013 A 
ATOM      5  C   UNL     1      23.129   1.874  52.262  1.00  0.00    +0.054 A 
ATOM      6  C   UNL     1      22.111   1.110  52.825  1.00  0.00    +0.194 A 
ENDROOT
BRANCH   1   7
ATOM      7  N   UNL     1      21.407  -0.891  54.072  1.00  0.00    +0.066 N 
ATOM      8  O   UNL     1      20.342  -0.992  53.446  1.00  0.00    -0.258 OA
ATOM      9  O   UNL     1      21.689  -1.492  55.117  1.00  0.00    -0.258 OA
ENDBRANCH   1   7
BRANCH   6  10
ATOM     10  O   UNL     1      20.816   1.525  52.737  1.00  0.00    -0.502 OA
ATOM     11  H   UNL     1      20.373   1.413  53.596  1.00  0.00    +0.293 HD
ENDBRANCH   6  10
BRANCH   3  12
ATOM     12  C   UNL     1      26.211  -0.161  53.165  1.00  0.00    -0.011 A 
ATOM     13  C   UNL     1      27.222   0.768  53.478  1.00  0.00    +0.059 A 
ATOM     14  C   UNL     1      26.576  -1.508  52.956  1.00  0.00    +0.059 A 
ATOM     15  C   UNL     1      28.547   0.360  53.578  1.00  0.00    +0.162 A 
ATOM     16  C   UNL     1      27.910  -1.899  53.060  1.00  0.00    +0.162 A 
ATOM     17  C   UNL     1      28.890  -0.967  53.370  1.00  0.00    +0.200 A 
BRANCH  15  18
ATOM     18  O   UNL     1      29.510   1.277  53.882  1.00  0.00    -0.504 OA
ATOM     19  H   UNL     1      29.607   1.812  53.067  1.00  0.00    +0.293 HD
ENDBRANCH  15  18
BRANCH  16  20
ATOM     20  O   UNL     1      28.305  -3.194  52.861  1.00  0.00    -0.504 OA
ATOM     21  H   UNL     1      28.131  -3.430  51.933  1.00  0.00    +0.293 HD
ENDBRANCH  16  20
BRANCH  17  22
ATOM     22  O   UNL     1      30.202  -1.340  53.473  1.00  0.00    -0.502 OA
ATOM     23  H   UNL     1      30.366  -1.375  54.439  1.00  0.00    +0.293 HD
ENDBRANCH  17  22
ENDBRANCH   3  12
TORSDOF 6
ENDMDL
MODEL 6
REMARK VINA RESULT:    -7.364      2.169      6.397
REMARK INTER + INTRA:          -9.606
REMARK INTER:                  -9.020
REMARK INTRA:                  -0.586
REMARK UNBOUND:                -0.520
REMARK SMILES O=[N+]([O-])c1cc(-c2cc(O)c(O)c(O)c2)ccc1O
REMARK SMILES IDX 4 1 5 2 6 3 16 4 17 5 18 6 2 7 1 8 3 9 19 10 7 12 8 13 15 14
REMARK SMILES IDX 9 15 13 16 11 17 10 18 14 20 12 22
REMARK H PARENT 19 11 10 19 14 21 12 23
ROOT
ATOM      1  C   UNL     1      27.165   0.552  53.935  1.00  0.00    +0.311 A 
ATOM      2  C   UNL     1      25.815   0.198  54.065  1.00  0.00    +0.098 A 
ATOM      3  C   UNL     1      24.862   0.761  53.204  1.00  0.00    -0.011 A 
ATOM      4  C   UNL     1      25.308   1.670  52.224  1.00  0.00    +0.013 A 
ATOM      5  C   UNL     1      26.663   2.010  52.099  1.00  0.00    +0.054 A 
ATOM      6  C   UNL     1      27.600   1.446  52.959  1.00  0.00    +0.194 A 
ENDROOT
BRANCH   1   7
ATOM      7  N   UNL     1      28.112  -0.038  54.854  1.00  0.00    +0.066 N 
ATOM      8  O   UNL     1      27.998   0.252  56.053  1.00  0.00    -0.258 OA
ATOM      9  O   UNL     1      28.923  -0.847  54.381  1.00  0.00    -0.258 OA
ENDBRANCH   1   7
BRANCH   6  10
ATOM     10  O   UNL     1      28.921   1.754  52.828  1.00  0.00    -0.502 OA
ATOM     11  H   UNL     1      29.019   2.676  52.534  1.00  0.00    +0.293 HD
ENDBRANCH   6  10
BRANCH   3  12
ATOM     12  C   UNL     1      23.435   0.416  53.320  1.00  0.00    -0.011 A 
ATOM     13  C   UNL     1      23.016  -0.629  54.167  1.00  0.00    +0.059 A 
ATOM     14  C   UNL     1      22.457   1.121  52.585  1.00  0.00    +0.059 A 
ATOM     15  C   UNL     1      21.667  -0.953  54.269  1.00  0.00    +0.162 A 
ATOM     16  C   UNL     1      21.111   0.781  52.701  1.00  0.00    +0.162 A 
ATOM     17  C   UNL     1      20.719  -0.252  53.541  1.00  0.00    +0.200 A 
BRANCH  15  18
ATOM     18  O   UNL     1      21.284  -1.970  55.095  1.00  0.00    -0.504 OA
ATOM     19  H   UNL     1      22.086  -2.523  55.193  1.00  0.00    +0.293 HD
ENDBRANCH  15  18
BRANCH  16  20
ATOM     20  O   UNL     1      20.134   1.437  52.003  1.00  0.00    -0.504 OA
ATOM     21  H   UNL     1      19.604   0.777  51.522  1.00  0.00    +0.293 HD
ENDBRANCH  16  20
BRANCH  17  22
ATOM     22  O   UNL     1      19.400  -0.593  53.662  1.00  0.00    -0.502 OA
ATOM     23  H   UNL     1      19.007   0.145  54.172  1.00  0.00    +0.293 HD
ENDBRANCH  17  22
ENDBRANCH   3  12
TORSDOF 6
ENDMDL
MODEL 7
REMARK VINA RESULT:    -7.205      2.084      6.578
REMARK INTER + INTRA:          -9.409
REMARK INTER:                  -8.847
REMARK INTRA:                  -0.562
REMARK UNBOUND:                -0.520
REMARK SMILES O=[N+]([O-])c1cc(-c2cc(O)c(O)c(O)c2)ccc1O
REMARK SMILES IDX 4 1 5 2 6 3 16 4 17 5 18 6 2 7 1 8 3 9 19 10 7 12 8 13 15 14
REMARK SMILES IDX 9 15 13 16 11 17 10 18 14 20 12 22
REMARK H PARENT 19 11 10 19 14 21 12 23
ROOT
ATOM      1  C   UNL     1      27.924   0.804  53.658  1.00  0.00    +0.311 A 
ATOM      2  C   UNL     1      26.538   1.000  53.709  1.00  0.00    +0.098 A 
ATOM      3  C   UNL     1      25.673  -0.065  53.412  1.00  0.00    -0.011 A 
ATOM      4  C   UNL     1      26.244  -1.308  53.075  1.00  0.00    +0.013 A 
ATOM      5  C   UNL     1      27.634  -1.492  53.036  1.00  0.00    +0.054 A 
ATOM      6  C   UNL     1      28.481  -0.430  53.331  1.00  0.00    +0.194 A 
ENDROOT
BRANCH   1   7
ATOM      7  N   UNL     1      28.779   1.932  53.954  1.00  0.00    +0.066 N 
ATOM      8  O   UNL     1      29.407   1.906  55.022  1.00  0.00    -0.258 OA
ATOM      9  O   UNL     1      28.874   2.807  53.081  1.00  0.00    -0.258 OA
ENDBRANCH   1   7
BRANCH   6  10
ATOM     10  O   UNL     1      29.832  -0.608  53.317  1.00  0.00    -0.502 OA
ATOM     11  H   UNL     1      30.077  -1.242  52.620  1.00  0.00    +0.293 HD
ENDBRANCH   6  10
BRANCH   3  12
ATOM     12  C   UNL     1      24.212   0.111  53.449  1.00  0.00    -0.011 A 
ATOM     13  C   UNL     1      23.404  -0.747  54.220  1.00  0.00    +0.059 A 
ATOM     14  C   UNL     1      23.588   1.140  52.711  1.00  0.00    +0.059 A 
ATOM     15  C   UNL     1      22.024  -0.578  54.248  1.00  0.00    +0.162 A 
ATOM     16  C   UNL     1      22.203   1.294  52.751  1.00  0.00    +0.162 A 
ATOM     17  C   UNL     1      21.426   0.437  53.518  1.00  0.00    +0.200 A 
BRANCH  15  18
ATOM     18  O   UNL     1      21.261  -1.422  55.001  1.00  0.00    -0.504 OA
ATOM     19  H   UNL     1      21.266  -1.025  55.897  1.00  0.00    +0.293 HD
ENDBRANCH  15  18
BRANCH  16  20
ATOM     20  O   UNL     1      21.561   2.275  52.048  1.00  0.00    -0.504 OA
ATOM     21  H   UNL     1      20.990   1.854  51.381  1.00  0.00    +0.293 HD
ENDBRANCH  16  20
BRANCH  17  22
ATOM     22  O   UNL     1      20.066   0.579  53.564  1.00  0.00    -0.502 OA
ATOM     23  H   UNL     1      19.724  -0.279  53.237  1.00  0.00    +0.293 HD
ENDBRANCH  17  22
ENDBRANCH   3  12
TORSDOF 6
ENDMDL
MODEL 8
REMARK VINA RESULT:    -7.177      2.093      6.732
REMARK INTER + INTRA:          -9.375
REMARK INTER:                  -8.854
REMARK INTRA:                  -0.521
REMARK UNBOUND:                -0.520
REMARK SMILES O=[N+]([O-])c1cc(-c2cc(O)c(O)c(O)c2)ccc1O
REMARK SMILES IDX 4 1 5 2 6 3 16 4 17 5 18 6 2 7 1 8 3 9 19 10 7 12 8 13 15 14
REMARK SMILES IDX 9 15 13 16 11 17 10 18 14 20 12 22
REMARK H PARENT 19 11 10 19 14 21 12 23
ROOT
ATOM      1  C   UNL     1      27.949   0.830  53.622  1.00  0.00    +0.311 A 
ATOM      2  C   UNL     1      26.558   0.986  53.676  1.00  0.00    +0.098 A 
ATOM      3  C   UNL     1      25.723  -0.114  53.428  1.00  0.00    -0.011 A 
ATOM      4  C   UNL     1      26.328  -1.352  53.136  1.00  0.00    +0.013 A 
ATOM      5  C   UNL     1      27.723  -1.497  53.094  1.00  0.00    +0.054 A 
ATOM      6  C   UNL     1      28.541  -0.399  53.340  1.00  0.00    +0.194 A 
ENDROOT
BRANCH   1   7
ATOM      7  N   UNL     1      28.772   1.994  53.867  1.00  0.00    +0.066 N 
ATOM      8  O   UNL     1      28.870   2.824  52.952  1.00  0.00    -0.258 OA
ATOM      9  O   UNL     1      29.261   2.106  55.000  1.00  0.00    -0.258 OA
ENDBRANCH   1   7
BRANCH   6  10
ATOM     10  O   UNL     1      29.896  -0.539  53.323  1.00  0.00    -0.502 OA
ATOM     11  H   UNL     1      30.309   0.273  52.982  1.00  0.00    +0.293 HD
ENDBRANCH   6  10
BRANCH   3  12
ATOM     12  C   UNL     1      24.258   0.020  53.469  1.00  0.00    -0.011 A 
ATOM     13  C   UNL     1      23.605   1.007  52.705  1.00  0.00    +0.059 A 
ATOM     14  C   UNL     1      23.475  -0.834  54.276  1.00  0.00    +0.059 A 
ATOM     15  C   UNL     1      22.220   1.131  52.751  1.00  0.00    +0.162 A 
ATOM     16  C   UNL     1      22.089  -0.694  54.309  1.00  0.00    +0.162 A 
ATOM     17  C   UNL     1      21.466   0.285  53.548  1.00  0.00    +0.200 A 
BRANCH  15  18
ATOM     18  O   UNL     1      21.609   2.095  52.003  1.00  0.00    -0.504 OA
ATOM     19  H   UNL     1      22.028   2.932  52.289  1.00  0.00    +0.293 HD
ENDBRANCH  15  18
BRANCH  16  20
ATOM     20  O   UNL     1      21.296  -1.499  55.080  1.00  0.00    -0.504 OA
ATOM     21  H   UNL     1      21.582  -1.416  56.007  1.00  0.00    +0.293 HD
ENDBRANCH  16  20
BRANCH  17  22
ATOM     22  O   UNL     1      20.106   0.430  53.574  1.00  0.00    -0.502 OA
ATOM     23  H   UNL     1      19.769  -0.482  53.691  1.00  0.00    +0.293 HD
ENDBRANCH  17  22
ENDBRANCH   3  12
TORSDOF 6
ENDMDL
MODEL 9
REMARK VINA RESULT:    -6.912      2.075      3.499
REMARK INTER + INTRA:          -9.048
REMARK INTER:                  -8.472
REMARK INTRA:                  -0.576
REMARK UNBOUND:                -0.520
REMARK SMILES O=[N+]([O-])c1cc(-c2cc(O)c(O)c(O)c2)ccc1O
REMARK SMILES IDX 4 1 5 2 6 3 16 4 17 5 18 6 2 7 1 8 3 9 19 10 7 12 8 13 15 14
REMARK SMILES IDX 9 15 13 16 11 17 10 18 14 20 12 22
REMARK H PARENT 19 11 10 19 14 21 12 23
ROOT
ATOM      1  C   UNL     1      23.798   2.059  51.371  1.00  0.00    +0.311 A 
ATOM      2  C   UNL     1      25.083   1.589  51.675  1.00  0.00    +0.098 A 
ATOM      3  C   UNL     1      25.239   0.515  52.563  1.00  0.00    -0.011 A 
ATOM      4  C   UNL     1      24.080  -0.062  53.116  1.00  0.00    +0.013 A 
ATOM      5  C   UNL     1      22.798   0.411  52.796  1.00  0.00    +0.054 A 
ATOM      6  C   UNL     1      22.655   1.479  51.916  1.00  0.00    +0.194 A 
ENDROOT
BRANCH   1   7
ATOM      7  N   UNL     1      23.683   3.180  50.465  1.00  0.00    +0.066 N 
ATOM      8  O   UNL     1      23.117   2.980  49.381  1.00  0.00    -0.258 OA
ATOM      9  O   UNL     1      24.096   4.274  50.873  1.00  0.00    -0.258 OA
ENDBRANCH   1   7
BRANCH   6  10
ATOM     10  O   UNL     1      21.413   1.929  51.584  1.00  0.00    -0.502 OA
ATOM     11  H   UNL     1      21.436   2.354  50.709  1.00  0.00    +0.293 HD
ENDBRANCH   6  10
BRANCH   3  12
ATOM     12  C   UNL     1      26.576   0.004  52.909  1.00  0.00    -0.011 A 
ATOM     13  C   UNL     1      27.602   0.885  53.303  1.00  0.00    +0.059 A 
ATOM     14  C   UNL     1      26.861  -1.378  52.852  1.00  0.00    +0.059 A 
ATOM     15  C   UNL     1      28.864   0.396  53.625  1.00  0.00    +0.162 A 
ATOM     16  C   UNL     1      28.131  -1.848  53.178  1.00  0.00    +0.162 A 
ATOM     17  C   UNL     1      29.128  -0.962  53.563  1.00  0.00    +0.200 A 
BRANCH  15  18
ATOM     18  O   UNL     1      29.843   1.269  54.003  1.00  0.00    -0.504 OA
ATOM     19  H   UNL     1      30.101   0.976  54.901  1.00  0.00    +0.293 HD
ENDBRANCH  15  18
BRANCH  16  20
ATOM     20  O   UNL     1      28.447  -3.178  53.131  1.00  0.00    -0.504 OA
ATOM     21  H   UNL     1      29.362  -3.289  53.446  1.00  0.00    +0.293 HD
ENDBRANCH  16  20
BRANCH  17  22
ATOM     22  O   UNL     1      30.378  -1.414  53.885  1.00  0.00    -0.502 OA
ATOM     23  H   UNL     1      30.817  -1.542  53.019  1.00  0.00    +0.293 HD
ENDBRANCH  17  22
ENDBRANCH   3  12
TORSDOF 6
ENDMDL
