MODEL 1
REMARK VINA RESULT:    -7.539      0.000      0.000
REMARK INTER + INTRA:          -9.192
REMARK INTER:                  -8.641
REMARK INTRA:                  -0.551
REMARK UNBOUND:                -0.551
REMARK SMILES O=[N+]([O-])c1cc(-c2cccc(Cl)c2)ccc1O
REMARK SMILES IDX 4 1 5 2 6 3 14 4 15 5 16 6 2 7 1 8 3 9 17 10 7 12 8 13 13 14
REMARK SMILES IDX 9 15 11 16 10 17 12 18
REMARK H PARENT 17 11
ROOT
ATOM      1  C   UNL     1      27.035   0.478  54.071  1.00  0.00    +0.311 A 
ATOM      2  C   UNL     1      25.721   0.022  54.239  1.00  0.00    +0.098 A 
ATOM      3  C   UNL     1      24.741   0.350  53.291  1.00  0.00    -0.011 A 
ATOM      4  C   UNL     1      25.123   1.142  52.190  1.00  0.00    +0.013 A 
ATOM      5  C   UNL     1      26.439   1.601  52.037  1.00  0.00    +0.054 A 
ATOM      6  C   UNL     1      27.403   1.270  52.984  1.00  0.00    +0.194 A 
ENDROOT
BRANCH   1   7
ATOM      7  N   UNL     1      28.017   0.103  55.065  1.00  0.00    +0.066 N 
ATOM      8  O   UNL     1      27.634   0.069  56.243  1.00  0.00    -0.258 OA
ATOM      9  O   UNL     1      29.145  -0.216  54.664  1.00  0.00    -0.258 OA
ENDBRANCH   1   7
BRANCH   6  10
ATOM     10  O   UNL     1      28.676   1.740  52.854  1.00  0.00    -0.502 OA
ATOM     11  H   UNL     1      29.289   1.002  52.700  1.00  0.00    +0.293 HD
ENDBRANCH   6  10
BRANCH   3  12
ATOM     12  C   UNL     1      23.354  -0.118  53.441  1.00  0.00    -0.017 A 
ATOM     13  C   UNL     1      22.983  -0.946  54.515  1.00  0.00    +0.009 A 
ATOM     14  C   UNL     1      22.362   0.251  52.517  1.00  0.00    +0.029 A 
ATOM     15  C   UNL     1      21.666  -1.393  54.662  1.00  0.00    +0.002 A 
ATOM     16  C   UNL     1      21.048  -0.197  52.666  1.00  0.00    +0.041 A 
ATOM     17  C   UNL     1      20.697  -1.017  53.735  1.00  0.00    +0.020 A 
ATOM     18 Cl   UNL     1      19.854   0.266  51.518  1.00  0.00    -0.084 Cl
ENDBRANCH   3  12
TORSDOF 3
ENDMDL
MODEL 2
REMARK VINA RESULT:    -7.292      2.751      4.405
REMARK INTER + INTRA:          -8.909
REMARK INTER:                  -8.310
REMARK INTRA:                  -0.599
REMARK UNBOUND:                -0.551
REMARK SMILES O=[N+]([O-])c1cc(-c2cccc(Cl)c2)ccc1O
REMARK SMILES IDX 4 1 5 2 6 3 14 4 15 5 16 6 2 7 1 8 3 9 17 10 7 12 8 13 13 14
REMARK SMILES IDX 9 15 11 16 10 17 12 18
REMARK H PARENT 17 11
ROOT
ATOM      1  C   UNL     1      25.961  -0.063  54.579  1.00  0.00    +0.311 A 
ATOM      2  C   UNL     1      25.873   0.773  53.458  1.00  0.00    +0.098 A 
ATOM      3  C   UNL     1      24.668   0.863  52.747  1.00  0.00    -0.011 A 
ATOM      4  C   UNL     1      23.576   0.094  53.193  1.00  0.00    +0.013 A 
ATOM      5  C   UNL     1      23.678  -0.747  54.310  1.00  0.00    +0.054 A 
ATOM      6  C   UNL     1      24.879  -0.830  55.008  1.00  0.00    +0.194 A 
ENDROOT
BRANCH   1   7
ATOM      7  N   UNL     1      27.220  -0.115  55.291  1.00  0.00    +0.066 N 
ATOM      8  O   UNL     1      27.180   0.098  56.512  1.00  0.00    -0.258 OA
ATOM      9  O   UNL     1      28.230  -0.428  54.647  1.00  0.00    -0.258 OA
ENDBRANCH   1   7
BRANCH   6  10
ATOM     10  O   UNL     1      24.991  -1.670  56.075  1.00  0.00    -0.502 OA
ATOM     11  H   UNL     1      25.831  -1.512  56.538  1.00  0.00    +0.293 HD
ENDBRANCH   6  10
BRANCH   3  12
ATOM     12  C   UNL     1      24.547   1.736  51.568  1.00  0.00    -0.017 A 
ATOM     13  C   UNL     1      23.306   1.932  50.937  1.00  0.00    +0.009 A 
ATOM     14  C   UNL     1      25.668   2.400  51.042  1.00  0.00    +0.029 A 
ATOM     15  C   UNL     1      23.186   2.761  49.818  1.00  0.00    +0.002 A 
ATOM     16  C   UNL     1      25.545   3.227  49.923  1.00  0.00    +0.041 A 
ATOM     17  C   UNL     1      24.309   3.409  49.310  1.00  0.00    +0.020 A 
ATOM     18 Cl   UNL     1      26.935   4.024  49.296  1.00  0.00    -0.084 Cl
ENDBRANCH   3  12
TORSDOF 3
ENDMDL
MODEL 3
REMARK VINA RESULT:    -7.281      1.695      2.588
REMARK INTER + INTRA:          -8.896
REMARK INTER:                  -8.322
REMARK INTRA:                  -0.574
REMARK UNBOUND:                -0.551
REMARK SMILES O=[N+]([O-])c1cc(-c2cccc(Cl)c2)ccc1O
REMARK SMILES IDX 4 1 5 2 6 3 14 4 15 5 16 6 2 7 1 8 3 9 17 10 7 12 8 13 13 14
REMARK SMILES IDX 9 15 11 16 10 17 12 18
REMARK H PARENT 17 11
ROOT
ATOM      1  C   UNL     1      28.015   0.816  53.586  1.00  0.00    +0.311 A 
ATOM      2  C   UNL     1      26.636   1.045  53.499  1.00  0.00    +0.098 A 
ATOM      3  C   UNL     1      25.770  -0.014  53.188  1.00  0.00    -0.011 A 
ATOM      4  C   UNL     1      26.332  -1.286  52.967  1.00  0.00    +0.013 A 
ATOM      5  C   UNL     1      27.716  -1.502  53.047  1.00  0.00    +0.054 A 
ATOM      6  C   UNL     1      28.565  -0.444  53.356  1.00  0.00    +0.194 A 
ENDROOT
BRANCH   1   7
ATOM      7  N   UNL     1      28.870   1.934  53.924  1.00  0.00    +0.066 N 
ATOM      8  O   UNL     1      28.924   2.864  53.107  1.00  0.00    -0.258 OA
ATOM      9  O   UNL     1      29.432   1.911  55.028  1.00  0.00    -0.258 OA
ENDBRANCH   1   7
BRANCH   6  10
ATOM     10  O   UNL     1      29.913  -0.643  53.404  1.00  0.00    -0.502 OA
ATOM     11  H   UNL     1      30.318  -0.032  54.042  1.00  0.00    +0.293 HD
ENDBRANCH   6  10
BRANCH   3  12
ATOM     12  C   UNL     1      24.317   0.198  53.094  1.00  0.00    -0.017 A 
ATOM     13  C   UNL     1      23.792   1.328  52.444  1.00  0.00    +0.009 A 
ATOM     14  C   UNL     1      23.415  -0.724  53.651  1.00  0.00    +0.029 A 
ATOM     15  C   UNL     1      22.411   1.533  52.351  1.00  0.00    +0.002 A 
ATOM     16  C   UNL     1      22.037  -0.516  53.557  1.00  0.00    +0.041 A 
ATOM     17  C   UNL     1      21.532   0.608  52.910  1.00  0.00    +0.020 A 
ATOM     18 Cl   UNL     1      20.953  -1.659  54.251  1.00  0.00    -0.084 Cl
ENDBRANCH   3  12
TORSDOF 3
ENDMDL
MODEL 4
REMARK VINA RESULT:    -7.266      2.861      4.531
REMARK INTER + INTRA:          -8.879
REMARK INTER:                  -8.325
REMARK INTRA:                  -0.554
REMARK UNBOUND:                -0.551
REMARK SMILES O=[N+]([O-])c1cc(-c2cccc(Cl)c2)ccc1O
REMARK SMILES IDX 4 1 5 2 6 3 14 4 15 5 16 6 2 7 1 8 3 9 17 10 7 12 8 13 13 14
REMARK SMILES IDX 9 15 11 16 10 17 12 18
REMARK H PARENT 17 11
ROOT
ATOM      1  C   UNL     1      24.051  -0.739  54.309  1.00  0.00    +0.311 A 
ATOM      2  C   UNL     1      23.859  -0.064  53.096  1.00  0.00    +0.098 A 
ATOM      3  C   UNL     1      22.559   0.149  52.613  1.00  0.00    -0.011 A 
ATOM      4  C   UNL     1      21.481  -0.335  53.378  1.00  0.00    +0.013 A 
ATOM      5  C   UNL     1      21.684  -1.017  54.586  1.00  0.00    +0.054 A 
ATOM      6  C   UNL     1      22.978  -1.224  55.055  1.00  0.00    +0.194 A 
ENDROOT
BRANCH   1   7
ATOM      7  N   UNL     1      25.408  -0.923  54.777  1.00  0.00    +0.066 N 
ATOM      8  O   UNL     1      26.266  -1.169  53.918  1.00  0.00    -0.258 OA
ATOM      9  O   UNL     1      25.623  -0.760  55.986  1.00  0.00    -0.258 OA
ENDBRANCH   1   7
BRANCH   6  10
ATOM     10  O   UNL     1      23.181  -1.913  56.213  1.00  0.00    -0.502 OA
ATOM     11  H   UNL     1      22.612  -1.559  56.916  1.00  0.00    +0.293 HD
ENDBRANCH   6  10
BRANCH   3  12
ATOM     12  C   UNL     1      22.329   0.857  51.343  1.00  0.00    -0.017 A 
ATOM     13  C   UNL     1      21.232   0.536  50.525  1.00  0.00    +0.009 A 
ATOM     14  C   UNL     1      23.199   1.874  50.915  1.00  0.00    +0.029 A 
ATOM     15  C   UNL     1      21.009   1.207  49.318  1.00  0.00    +0.002 A 
ATOM     16  C   UNL     1      22.974   2.541  49.709  1.00  0.00    +0.041 A 
ATOM     17  C   UNL     1      21.883   2.211  48.910  1.00  0.00    +0.020 A 
ATOM     18 Cl   UNL     1      24.056   3.781  49.206  1.00  0.00    -0.084 Cl
ENDBRANCH   3  12
TORSDOF 3
ENDMDL
MODEL 5
REMARK VINA RESULT:    -7.059      1.510      1.993
REMARK INTER + INTRA:          -8.641
REMARK INTER:                  -8.092
REMARK INTRA:                  -0.550
REMARK UNBOUND:                -0.551
REMARK SMILES O=[N+]([O-])c1cc(-c2cccc(Cl)c2)ccc1O
REMARK SMILES IDX 4 1 5 2 6 3 14 4 15 5 16 6 2 7 1 8 3 9 17 10 7 12 8 13 13 14
REMARK SMILES IDX 9 15 11 16 10 17 12 18
REMARK H PARENT 17 11
ROOT
ATOM      1  C   UNL     1      26.357   1.660  52.298  1.00  0.00    +0.311 A 
ATOM      2  C   UNL     1      25.336   0.887  52.866  1.00  0.00    +0.098 A 
ATOM      3  C   UNL     1      24.011   1.057  52.439  1.00  0.00    -0.011 A 
ATOM      4  C   UNL     1      23.755   2.018  51.442  1.00  0.00    +0.013 A 
ATOM      5  C   UNL     1      24.783   2.793  50.887  1.00  0.00    +0.054 A 
ATOM      6  C   UNL     1      26.094   2.616  51.319  1.00  0.00    +0.194 A 
ENDROOT
BRANCH   1   7
ATOM      7  N   UNL     1      27.712   1.440  52.758  1.00  0.00    +0.066 N 
ATOM      8  O   UNL     1      28.083   0.262  52.859  1.00  0.00    -0.258 OA
ATOM      9  O   UNL     1      28.418   2.439  52.956  1.00  0.00    -0.258 OA
ENDBRANCH   1   7
BRANCH   6  10
ATOM     10  O   UNL     1      27.091   3.390  50.805  1.00  0.00    -0.502 OA
ATOM     11  H   UNL     1      26.721   4.045  50.190  1.00  0.00    +0.293 HD
ENDBRANCH   6  10
BRANCH   3  12
ATOM     12  C   UNL     1      22.920   0.256  53.016  1.00  0.00    -0.017 A 
ATOM     13  C   UNL     1      23.159  -0.636  54.076  1.00  0.00    +0.009 A 
ATOM     14  C   UNL     1      21.608   0.361  52.525  1.00  0.00    +0.029 A 
ATOM     15  C   UNL     1      22.125  -1.398  54.628  1.00  0.00    +0.002 A 
ATOM     16  C   UNL     1      20.577  -0.402  53.077  1.00  0.00    +0.041 A 
ATOM     17  C   UNL     1      20.831  -1.281  54.127  1.00  0.00    +0.020 A 
ATOM     18 Cl   UNL     1      18.980  -0.257  52.454  1.00  0.00    -0.084 Cl
ENDBRANCH   3  12
TORSDOF 3
ENDMDL
MODEL 6
REMARK VINA RESULT:    -7.005      2.112      3.840
REMARK INTER + INTRA:          -8.579
REMARK INTER:                  -7.986
REMARK INTRA:                  -0.594
REMARK UNBOUND:                -0.551
REMARK SMILES O=[N+]([O-])c1cc(-c2cccc(Cl)c2)ccc1O
REMARK SMILES IDX 4 1 5 2 6 3 14 4 15 5 16 6 2 7 1 8 3 9 17 10 7 12 8 13 13 14
REMARK SMILES IDX 9 15 11 16 10 17 12 18
REMARK H PARENT 17 11
ROOT
ATOM      1  C   UNL     1      25.666  -0.173  54.449  1.00  0.00    +0.311 A 
ATOM      2  C   UNL     1      25.444   0.618  53.315  1.00  0.00    +0.098 A 
ATOM      3  C   UNL     1      24.166   0.669  52.738  1.00  0.00    -0.011 A 
ATOM      4  C   UNL     1      23.141  -0.095  53.330  1.00  0.00    +0.013 A 
ATOM      5  C   UNL     1      23.378  -0.891  54.460  1.00  0.00    +0.054 A 
ATOM      6  C   UNL     1      24.649  -0.934  55.023  1.00  0.00    +0.194 A 
ENDROOT
BRANCH   1   7
ATOM      7  N   UNL     1      26.996  -0.184  55.020  1.00  0.00    +0.066 N 
ATOM      8  O   UNL     1      27.094   0.130  56.214  1.00  0.00    -0.258 OA
ATOM      9  O   UNL     1      27.926  -0.565  54.296  1.00  0.00    -0.258 OA
ENDBRANCH   1   7
BRANCH   6  10
ATOM     10  O   UNL     1      24.890  -1.731  56.102  1.00  0.00    -0.502 OA
ATOM     11  H   UNL     1      24.523  -2.618  55.950  1.00  0.00    +0.293 HD
ENDBRANCH   6  10
BRANCH   3  12
ATOM     12  C   UNL     1      23.903   1.494  51.549  1.00  0.00    -0.017 A 
ATOM     13  C   UNL     1      24.805   2.497  51.150  1.00  0.00    +0.009 A 
ATOM     14  C   UNL     1      22.745   1.303  50.777  1.00  0.00    +0.029 A 
ATOM     15  C   UNL     1      24.560   3.283  50.020  1.00  0.00    +0.002 A 
ATOM     16  C   UNL     1      22.502   2.091  49.650  1.00  0.00    +0.041 A 
ATOM     17  C   UNL     1      23.405   3.079  49.269  1.00  0.00    +0.020 A 
ATOM     18 Cl   UNL     1      21.073   1.838  48.724  1.00  0.00    -0.084 Cl
ENDBRANCH   3  12
TORSDOF 3
ENDMDL
MODEL 7
REMARK VINA RESULT:    -6.951      3.849      5.280
REMARK INTER + INTRA:          -8.518
REMARK INTER:                  -7.945
REMARK INTRA:                  -0.572
REMARK UNBOUND:                -0.551
REMARK SMILES O=[N+]([O-])c1cc(-c2cccc(Cl)c2)ccc1O
REMARK SMILES IDX 4 1 5 2 6 3 14 4 15 5 16 6 2 7 1 8 3 9 17 10 7 12 8 13 13 14
REMARK SMILES IDX 9 15 11 16 10 17 12 18
REMARK H PARENT 17 11
ROOT
ATOM      1  C   UNL     1      23.354  -0.451  54.235  1.00  0.00    +0.311 A 
ATOM      2  C   UNL     1      23.245   0.421  53.144  1.00  0.00    +0.098 A 
ATOM      3  C   UNL     1      24.403   0.873  52.493  1.00  0.00    -0.011 A 
ATOM      4  C   UNL     1      25.650   0.428  52.974  1.00  0.00    +0.013 A 
ATOM      5  C   UNL     1      25.747  -0.437  54.073  1.00  0.00    +0.054 A 
ATOM      6  C   UNL     1      24.592  -0.879  54.711  1.00  0.00    +0.194 A 
ENDROOT
BRANCH   1   7
ATOM      7  N   UNL     1      22.133  -0.904  54.867  1.00  0.00    +0.066 N 
ATOM      8  O   UNL     1      21.257  -0.050  55.067  1.00  0.00    -0.258 OA
ATOM      9  O   UNL     1      22.027  -2.115  55.104  1.00  0.00    -0.258 OA
ENDBRANCH   1   7
BRANCH   6  10
ATOM     10  O   UNL     1      24.684  -1.695  55.799  1.00  0.00    -0.502 OA
ATOM     11  H   UNL     1      25.456  -2.279  55.713  1.00  0.00    +0.293 HD
ENDBRANCH   6  10
BRANCH   3  12
ATOM     12  C   UNL     1      24.318   1.787  51.343  1.00  0.00    -0.017 A 
ATOM     13  C   UNL     1      23.097   2.001  50.678  1.00  0.00    +0.009 A 
ATOM     14  C   UNL     1      25.453   2.471  50.877  1.00  0.00    +0.029 A 
ATOM     15  C   UNL     1      23.011   2.869  49.585  1.00  0.00    +0.002 A 
ATOM     16  C   UNL     1      25.364   3.336  49.785  1.00  0.00    +0.041 A 
ATOM     17  C   UNL     1      24.148   3.538  49.138  1.00  0.00    +0.020 A 
ATOM     18 Cl   UNL     1      26.771   4.159  49.233  1.00  0.00    -0.084 Cl
ENDBRANCH   3  12
TORSDOF 3
ENDMDL
MODEL 8
REMARK VINA RESULT:    -6.934      4.866      6.648
REMARK INTER + INTRA:          -8.499
REMARK INTER:                  -7.914
REMARK INTRA:                  -0.584
REMARK UNBOUND:                -0.551
REMARK SMILES O=[N+]([O-])c1cc(-c2cccc(Cl)c2)ccc1O
REMARK SMILES IDX 4 1 5 2 6 3 14 4 15 5 16 6 2 7 1 8 3 9 17 10 7 12 8 13 13 14
REMARK SMILES IDX 9 15 11 16 10 17 12 18
REMARK H PARENT 17 11
ROOT
ATOM      1  C   UNL     1      21.046   0.792  53.100  1.00  0.00    +0.311 A 
ATOM      2  C   UNL     1      22.391   1.126  52.893  1.00  0.00    +0.098 A 
ATOM      3  C   UNL     1      23.402   0.281  53.372  1.00  0.00    -0.011 A 
ATOM      4  C   UNL     1      23.019  -0.888  54.058  1.00  0.00    +0.013 A 
ATOM      5  C   UNL     1      21.670  -1.208  54.268  1.00  0.00    +0.054 A 
ATOM      6  C   UNL     1      20.674  -0.361  53.789  1.00  0.00    +0.194 A 
ENDROOT
BRANCH   1   7
ATOM      7  N   UNL     1      20.035   1.685  52.575  1.00  0.00    +0.066 N 
ATOM      8  O   UNL     1      20.129   2.881  52.887  1.00  0.00    -0.258 OA
ATOM      9  O   UNL     1      19.192   1.205  51.805  1.00  0.00    -0.258 OA
ENDBRANCH   1   7
BRANCH   6  10
ATOM     10  O   UNL     1      19.363  -0.653  54.018  1.00  0.00    -0.502 OA
ATOM     11  H   UNL     1      19.210  -0.774  54.971  1.00  0.00    +0.293 HD
ENDBRANCH   6  10
BRANCH   3  12
ATOM     12  C   UNL     1      24.822   0.606  53.166  1.00  0.00    -0.017 A 
ATOM     13  C   UNL     1      25.251   1.271  52.004  1.00  0.00    +0.009 A 
ATOM     14  C   UNL     1      25.790   0.261  54.125  1.00  0.00    +0.029 A 
ATOM     15  C   UNL     1      26.599   1.582  51.804  1.00  0.00    +0.002 A 
ATOM     16  C   UNL     1      27.136   0.572  53.922  1.00  0.00    +0.041 A 
ATOM     17  C   UNL     1      27.544   1.232  52.766  1.00  0.00    +0.020 A 
ATOM     18 Cl   UNL     1      28.301   0.136  55.111  1.00  0.00    -0.084 Cl
ENDBRANCH   3  12
TORSDOF 3
ENDMDL
MODEL 9
REMARK VINA RESULT:    -6.933      2.323      4.470
REMARK INTER + INTRA:          -8.498
REMARK INTER:                  -7.925
REMARK INTRA:                  -0.572
REMARK UNBOUND:                -0.551
REMARK SMILES O=[N+]([O-])c1cc(-c2cccc(Cl)c2)ccc1O
REMARK SMILES IDX 4 1 5 2 6 3 14 4 15 5 16 6 2 7 1 8 3 9 17 10 7 12 8 13 13 14
REMARK SMILES IDX 9 15 11 16 10 17 12 18
REMARK H PARENT 17 11
ROOT
ATOM      1  C   UNL     1      26.237   0.086  54.685  1.00  0.00    +0.311 A 
ATOM      2  C   UNL     1      26.320   1.025  53.648  1.00  0.00    +0.098 A 
ATOM      3  C   UNL     1      25.236   1.200  52.776  1.00  0.00    -0.011 A 
ATOM      4  C   UNL     1      24.089   0.408  52.977  1.00  0.00    +0.013 A 
ATOM      5  C   UNL     1      24.020  -0.536  54.012  1.00  0.00    +0.054 A 
ATOM      6  C   UNL     1      25.102  -0.702  54.871  1.00  0.00    +0.194 A 
ENDROOT
BRANCH   1   7
ATOM      7  N   UNL     1      27.374  -0.051  55.570  1.00  0.00    +0.066 N 
ATOM      8  O   UNL     1      28.483  -0.197  55.038  1.00  0.00    -0.258 OA
ATOM      9  O   UNL     1      27.166   0.051  56.788  1.00  0.00    -0.258 OA
ENDBRANCH   1   7
BRANCH   6  10
ATOM     10  O   UNL     1      25.051  -1.640  55.859  1.00  0.00    -0.502 OA
ATOM     11  H   UNL     1      25.899  -1.671  56.333  1.00  0.00    +0.293 HD
ENDBRANCH   6  10
BRANCH   3  12
ATOM     12  C   UNL     1      25.295   2.181  51.681  1.00  0.00    -0.017 A 
ATOM     13  C   UNL     1      26.420   2.262  50.842  1.00  0.00    +0.009 A 
ATOM     14  C   UNL     1      24.228   3.064  51.443  1.00  0.00    +0.029 A 
ATOM     15  C   UNL     1      26.480   3.192  49.800  1.00  0.00    +0.002 A 
ATOM     16  C   UNL     1      24.291   3.993  50.402  1.00  0.00    +0.041 A 
ATOM     17  C   UNL     1      25.413   4.060  49.580  1.00  0.00    +0.020 A 
ATOM     18 Cl   UNL     1      22.973   5.065  50.135  1.00  0.00    -0.084 Cl
ENDBRANCH   3  12
TORSDOF 3
ENDMDL
