REMARK SMILES CN(CC/N=N/Nc1ccc2ncnc(-c3ccc(O)c([N+](=O)[O-])c3)c2c1)c1ccccn1
REMARK SMILES IDX 5 1 6 2 4 3 3 4 2 5 1 6 28 7 29 8 33 9 30 10 32 11 31 12
REMARK SMILES IDX 7 13 8 15 9 16 27 17 10 18 26 19 11 20 15 21 12 22 14 23
REMARK SMILES IDX 13 24 16 25 17 26 25 27 18 28 21 29 19 30 22 31 23 32 24 33
REMARK SMILES IDX 20 34
REMARK H PARENT 7 14 20 35
ROOT
ATOM      1  N   UNL     1       1.808   1.956  -0.290  1.00  0.00    -0.169 NA
ATOM      2  N   UNL     1       1.428   1.057   0.480  1.00  0.00    -0.075 NA
ENDROOT
BRANCH   1   3
ATOM      3  C   UNL     1       3.202   2.364  -0.033  1.00  0.00    +0.190 C 
BRANCH   3   4
ATOM      4  C   UNL     1       4.161   1.665  -1.006  1.00  0.00    +0.143 C 
BRANCH   4   5
ATOM      5  N   UNL     1       4.499   0.309  -0.539  1.00  0.00    -0.358 N 
ATOM      6  C   UNL     1       3.835  -0.787  -1.244  1.00  0.00    +0.145 C 
BRANCH   5   7
ATOM      7  C   UNL     1       5.847   0.064  -0.243  1.00  0.00    +0.128 A 
ATOM      8  C   UNL     1       6.567   0.945   0.570  1.00  0.00    +0.047 A 
ATOM      9  N   UNL     1       6.438  -1.056  -0.718  1.00  0.00    -0.239 NA
ATOM     10  C   UNL     1       7.908   0.696   0.863  1.00  0.00    +0.005 A 
ATOM     11  C   UNL     1       7.737  -1.284  -0.418  1.00  0.00    +0.113 A 
ATOM     12  C   UNL     1       8.510  -0.443   0.355  1.00  0.00    +0.020 A 
ENDBRANCH   5   7
ENDBRANCH   4   5
ENDBRANCH   3   4
ENDBRANCH   1   3
BRANCH   2  13
ATOM     13  N   UNL     1       0.171   0.762   0.102  1.00  0.00    -0.260 N 
ATOM     14  H   UNL     1      -0.300   1.498  -0.412  1.00  0.00    +0.192 HD
BRANCH  13  15
ATOM     15  C   UNL     1      -0.632  -0.016   0.951  1.00  0.00    +0.059 A 
ATOM     16  C   UNL     1      -0.111  -0.767   2.004  1.00  0.00    +0.030 A 
ATOM     17  C   UNL     1      -1.995  -0.160   0.668  1.00  0.00    +0.040 A 
ATOM     18  C   UNL     1      -0.943  -1.577   2.787  1.00  0.00    +0.031 A 
ATOM     19  C   UNL     1      -2.841  -1.002   1.445  1.00  0.00    +0.029 A 
ATOM     20  C   UNL     1      -2.301  -1.700   2.532  1.00  0.00    +0.074 A 
ATOM     21  C   UNL     1      -4.217  -1.212   1.236  1.00  0.00    +0.082 A 
ATOM     22  N   UNL     1      -3.033  -2.484   3.332  1.00  0.00    -0.236 NA
ATOM     23  N   UNL     1      -4.975  -1.985   2.046  1.00  0.00    -0.236 NA
ATOM     24  C   UNL     1      -4.337  -2.583   3.056  1.00  0.00    +0.223 A 
BRANCH  21  25
ATOM     25  C   UNL     1      -4.978  -0.631   0.114  1.00  0.00    +0.008 A 
ATOM     26  C   UNL     1      -4.644  -0.918  -1.226  1.00  0.00    +0.015 A 
ATOM     27  C   UNL     1      -6.086   0.194   0.357  1.00  0.00    +0.100 A 
ATOM     28  C   UNL     1      -5.371  -0.377  -2.295  1.00  0.00    +0.054 A 
ATOM     29  C   UNL     1      -6.803   0.728  -0.720  1.00  0.00    +0.311 A 
ATOM     30  C   UNL     1      -6.458   0.454  -2.042  1.00  0.00    +0.194 A 
BRANCH  29  31
ATOM     31  N   UNL     1      -7.927   1.589  -0.428  1.00  0.00    +0.066 N 
ATOM     32  O   UNL     1      -7.788   2.800  -0.655  1.00  0.00    -0.258 OA
ATOM     33  O   UNL     1      -8.924   1.055   0.080  1.00  0.00    -0.258 OA
ENDBRANCH  29  31
BRANCH  30  34
ATOM     34  O   UNL     1      -7.180   0.969  -3.076  1.00  0.00    -0.502 OA
ATOM     35  H   UNL     1      -6.785   0.707  -3.924  1.00  0.00    +0.293 HD
ENDBRANCH  30  34
ENDBRANCH  21  25
ENDBRANCH  13  15
ENDBRANCH   2  13
TORSDOF 9
