REMARK SMILES CN(c1cccc(Cl)c1)c1ccc(-c2cc(O)ccc2[N+](=O)[O-])[nH]1
REMARK SMILES IDX 10 1 11 2 12 3 13 4 24 5 2 7 1 8 3 9 4 10 9 11 5 12 7 13
REMARK SMILES IDX 6 14 8 15 14 16 15 17 20 18 16 19 19 20 18 21 21 22 22 23
REMARK SMILES IDX 23 24 17 25
REMARK H PARENT 24 6 17 26
ROOT
ATOM      1  C   UNL     1       0.793  -1.386  -0.669  1.00  0.00    +0.110 A 
ATOM      2  C   UNL     1       0.154  -1.983  -1.736  1.00  0.00    +0.047 A 
ATOM      3  C   UNL     1      -1.176  -1.499  -1.772  1.00  0.00    +0.031 A 
ATOM      4  C   UNL     1      -1.344  -0.618  -0.717  1.00  0.00    +0.054 A 
ATOM      5  N   UNL     1      -0.140  -0.592  -0.043  1.00  0.00    -0.341 N 
ATOM      6  H   UNL     1       0.059  -0.048   0.788  1.00  0.00    +0.168 HD
ENDROOT
BRANCH   1   7
ATOM      7  N   UNL     1       2.057  -1.504  -0.160  1.00  0.00    -0.331 N 
ATOM      8  C   UNL     1       2.987  -2.428  -0.823  1.00  0.00    +0.152 C 
BRANCH   7   9
ATOM      9  C   UNL     1       2.745  -0.424   0.464  1.00  0.00    +0.043 A 
ATOM     10  C   UNL     1       2.647   0.893  -0.015  1.00  0.00    +0.026 A 
ATOM     11  C   UNL     1       3.543  -0.662   1.593  1.00  0.00    +0.046 A 
ATOM     12  C   UNL     1       3.320   1.942   0.616  1.00  0.00    +0.004 A 
ATOM     13  C   UNL     1       4.215   0.387   2.220  1.00  0.00    +0.043 A 
ATOM     14  C   UNL     1       4.107   1.689   1.737  1.00  0.00    +0.020 A 
ATOM     15 Cl   UNL     1       5.184   0.071   3.608  1.00  0.00    -0.084 Cl
ENDBRANCH   7   9
ENDBRANCH   1   7
BRANCH   4  16
ATOM     16  C   UNL     1      -2.536   0.125  -0.293  1.00  0.00    +0.079 A 
ATOM     17  C   UNL     1      -3.756  -0.569  -0.215  1.00  0.00    +0.063 A 
ATOM     18  C   UNL     1      -2.558   1.498   0.011  1.00  0.00    +0.278 A 
ATOM     19  C   UNL     1      -4.929   0.094   0.154  1.00  0.00    +0.116 A 
ATOM     20  C   UNL     1      -3.736   2.168   0.376  1.00  0.00    +0.090 A 
ATOM     21  C   UNL     1      -4.928   1.453   0.448  1.00  0.00    +0.053 A 
BRANCH  18  22
ATOM     22  N   UNL     1      -1.351   2.292  -0.052  1.00  0.00    +0.063 N 
ATOM     23  O   UNL     1      -0.526   2.129   0.858  1.00  0.00    -0.258 OA
ATOM     24  O   UNL     1      -1.252   3.099  -0.985  1.00  0.00    -0.258 OA
ENDBRANCH  18  22
BRANCH  19  25
ATOM     25  O   UNL     1      -6.119  -0.567   0.240  1.00  0.00    -0.508 OA
ATOM     26  H   UNL     1      -5.981  -1.504   0.022  1.00  0.00    +0.293 HD
ENDBRANCH  19  25
ENDBRANCH   4  16
TORSDOF 5
