REMARK SMILES c1ccc(C/N=N/Nc2ccc3ncnc(-c4ccccc4)c3c2)cc1
REMARK SMILES IDX 6 1 7 2 5 3 4 4 1 5 2 6 26 7 3 8 25 9 8 10 9 12 10 13 24 14
REMARK SMILES IDX 11 15 23 16 12 17 16 18 13 19 15 20 14 21 17 22 18 23 22 24
REMARK SMILES IDX 19 25 21 26 20 27
REMARK H PARENT 8 11
ROOT
ATOM      1  N   UNL     1       2.725  -0.550   0.781  1.00  0.00    -0.166 NA
ATOM      2  N   UNL     1       1.811  -0.647   1.620  1.00  0.00    -0.074 NA
ENDROOT
BRANCH   1   3
ATOM      3  C   UNL     1       4.049  -0.524   1.417  1.00  0.00    +0.204 C 
BRANCH   3   4
ATOM      4  C   UNL     1       5.142  -0.347   0.392  1.00  0.00    -0.025 A 
ATOM      5  C   UNL     1       7.140  -0.018  -1.548  1.00  0.00    +0.000 A 
ATOM      6  C   UNL     1       6.586   1.097  -0.922  1.00  0.00    +0.000 A 
ATOM      7  C   UNL     1       6.694  -1.296  -1.216  1.00  0.00    +0.000 A 
ATOM      8  C   UNL     1       5.588   0.934   0.041  1.00  0.00    +0.006 A 
ATOM      9  C   UNL     1       5.697  -1.461  -0.254  1.00  0.00    +0.006 A 
ENDBRANCH   3   4
ENDBRANCH   1   3
BRANCH   2  10
ATOM     10  N   UNL     1       0.669  -0.672   0.909  1.00  0.00    -0.260 N 
ATOM     11  H   UNL     1       0.764  -0.356  -0.051  1.00  0.00    +0.192 HD
BRANCH  10  12
ATOM     12  C   UNL     1      -0.540  -0.346   1.544  1.00  0.00    +0.059 A 
ATOM     13  C   UNL     1      -0.689  -0.343   2.931  1.00  0.00    +0.030 A 
ATOM     14  C   UNL     1      -1.686  -0.125   0.771  1.00  0.00    +0.040 A 
ATOM     15  C   UNL     1      -1.929  -0.066   3.518  1.00  0.00    +0.031 A 
ATOM     16  C   UNL     1      -2.950   0.145   1.364  1.00  0.00    +0.029 A 
ATOM     17  C   UNL     1      -3.062   0.187   2.759  1.00  0.00    +0.074 A 
ATOM     18  C   UNL     1      -4.148   0.394   0.669  1.00  0.00    +0.081 A 
ATOM     19  N   UNL     1      -4.210   0.456   3.390  1.00  0.00    -0.236 NA
ATOM     20  N   UNL     1      -5.313   0.685   1.291  1.00  0.00    -0.236 NA
ATOM     21  C   UNL     1      -5.280   0.697   2.625  1.00  0.00    +0.223 A 
BRANCH  18  22
ATOM     22  C   UNL     1      -4.253   0.366  -0.798  1.00  0.00    +0.001 A 
ATOM     23  C   UNL     1      -4.114  -0.834  -1.516  1.00  0.00    +0.010 A 
ATOM     24  C   UNL     1      -4.515   1.544  -1.518  1.00  0.00    +0.010 A 
ATOM     25  C   UNL     1      -4.209  -0.852  -2.910  1.00  0.00    +0.001 A 
ATOM     26  C   UNL     1      -4.611   1.527  -2.911  1.00  0.00    +0.001 A 
ATOM     27  C   UNL     1      -4.454   0.330  -3.606  1.00  0.00    +0.000 A 
ENDBRANCH  18  22
ENDBRANCH  10  12
ENDBRANCH   2  10
TORSDOF 5
