MODEL 1
REMARK VINA RESULT:    -6.853      0.000      0.000
REMARK INTER + INTRA:          -9.109
REMARK INTER:                  -8.456
REMARK INTRA:                  -0.654
REMARK UNBOUND:                -0.654
REMARK SMILES CCN(C(=O)c1ccccc1)c1[nH]c(C)cc1C
REMARK SMILES IDX 3 1 2 2 1 3 4 4 5 5 6 6 7 7 11 8 8 9 10 10 9 11 12 12 13 13
REMARK SMILES IDX 17 14 14 15 16 16 18 18 15 19
REMARK H PARENT 13 17
ROOT
ATOM      1  N   UNL     1      25.438   1.142  52.700  1.00  0.00    -0.294 N 
ENDROOT
BRANCH   1   2
ATOM      2  C   UNL     1      25.888   1.383  51.325  1.00  0.00    +0.124 C 
ATOM      3  C   UNL     1      26.532   2.752  51.155  1.00  0.00    +0.028 C 
ENDBRANCH   1   2
BRANCH   1   4
ATOM      4  C   UNL     1      26.472   0.973  53.646  1.00  0.00    +0.259 C 
ATOM      5  O   UNL     1      26.551   1.636  54.683  1.00  0.00    -0.269 OA
BRANCH   4   6
ATOM      6  C   UNL     1      27.476  -0.114  53.474  1.00  0.00    +0.040 A 
ATOM      7  C   UNL     1      27.108  -1.385  53.014  1.00  0.00    +0.014 A 
ATOM      8  C   UNL     1      28.806   0.139  53.831  1.00  0.00    +0.014 A 
ATOM      9  C   UNL     1      28.075  -2.380  52.871  1.00  0.00    +0.001 A 
ATOM     10  C   UNL     1      29.770  -0.860  53.688  1.00  0.00    +0.001 A 
ATOM     11  C   UNL     1      29.404  -2.116  53.203  1.00  0.00    +0.000 A 
ENDBRANCH   4   6
ENDBRANCH   1   4
BRANCH   1  12
ATOM     12  C   UNL     1      24.099   0.815  52.996  1.00  0.00    +0.116 A 
ATOM     13  N   UNL     1      23.744  -0.388  53.576  1.00  0.00    -0.345 N 
ATOM     14  C   UNL     1      22.908   1.492  52.737  1.00  0.00    -0.008 A 
ATOM     15  C   UNL     1      22.387  -0.481  53.729  1.00  0.00    +0.014 A 
ATOM     16  C   UNL     1      21.843   0.670  53.214  1.00  0.00    +0.028 A 
ATOM     17  H   UNL     1      24.389  -1.124  53.821  1.00  0.00    +0.168 HD
ATOM     18  C   UNL     1      22.701   2.833  52.128  1.00  0.00    +0.048 C 
ATOM     19  C   UNL     1      21.752  -1.672  54.344  1.00  0.00    +0.064 C 
ENDBRANCH   1  12
TORSDOF 4
ENDMDL
MODEL 2
REMARK VINA RESULT:    -6.598      1.500      2.146
REMARK INTER + INTRA:          -8.794
REMARK INTER:                  -8.004
REMARK INTRA:                  -0.790
REMARK UNBOUND:                -0.654
REMARK SMILES CCN(C(=O)c1ccccc1)c1[nH]c(C)cc1C
REMARK SMILES IDX 3 1 2 2 1 3 4 4 5 5 6 6 7 7 11 8 8 9 10 10 9 11 12 12 13 13
REMARK SMILES IDX 17 14 14 15 16 16 18 18 15 19
REMARK H PARENT 13 17
ROOT
ATOM      1  N   UNL     1      24.666   1.829  52.833  1.00  0.00    -0.294 N 
ENDROOT
BRANCH   1   2
ATOM      2  C   UNL     1      24.633   3.131  53.508  1.00  0.00    +0.124 C 
ATOM      3  C   UNL     1      23.739   4.135  52.793  1.00  0.00    +0.028 C 
ENDBRANCH   1   2
BRANCH   1   4
ATOM      4  C   UNL     1      25.812   1.593  52.044  1.00  0.00    +0.259 C 
ATOM      5  O   UNL     1      25.990   2.115  50.942  1.00  0.00    -0.269 OA
BRANCH   4   6
ATOM      6  C   UNL     1      26.930   0.764  52.575  1.00  0.00    +0.040 A 
ATOM      7  C   UNL     1      28.064   1.347  53.153  1.00  0.00    +0.014 A 
ATOM      8  C   UNL     1      26.853  -0.628  52.442  1.00  0.00    +0.014 A 
ATOM      9  C   UNL     1      29.094   0.537  53.634  1.00  0.00    +0.001 A 
ATOM     10  C   UNL     1      27.886  -1.434  52.924  1.00  0.00    +0.001 A 
ATOM     11  C   UNL     1      29.002  -0.851  53.524  1.00  0.00    +0.000 A 
ENDBRANCH   4   6
ENDBRANCH   1   4
BRANCH   1  12
ATOM     12  C   UNL     1      23.521   1.010  52.746  1.00  0.00    +0.116 A 
ATOM     13  N   UNL     1      23.198   0.089  53.724  1.00  0.00    -0.345 N 
ATOM     14  C   UNL     1      22.574   0.859  51.735  1.00  0.00    -0.008 A 
ATOM     15  C   UNL     1      22.065  -0.606  53.392  1.00  0.00    +0.014 A 
ATOM     16  C   UNL     1      21.659  -0.151  52.162  1.00  0.00    +0.028 A 
ATOM     17  H   UNL     1      23.739  -0.084  54.557  1.00  0.00    +0.168 HD
ATOM     18  C   UNL     1      22.440   1.598  50.452  1.00  0.00    +0.048 C 
ATOM     19  C   UNL     1      21.498  -1.644  54.287  1.00  0.00    +0.064 C 
ENDBRANCH   1  12
TORSDOF 4
ENDMDL
MODEL 3
REMARK VINA RESULT:    -6.576      2.172      3.089
REMARK INTER + INTRA:          -8.767
REMARK INTER:                  -7.886
REMARK INTRA:                  -0.881
REMARK UNBOUND:                -0.654
REMARK SMILES CCN(C(=O)c1ccccc1)c1[nH]c(C)cc1C
REMARK SMILES IDX 3 1 2 2 1 3 4 4 5 5 6 6 7 7 11 8 8 9 10 10 9 11 12 12 13 13
REMARK SMILES IDX 17 14 14 15 16 16 18 18 15 19
REMARK H PARENT 13 17
ROOT
ATOM      1  N   UNL     1      24.532   2.264  52.116  1.00  0.00    -0.294 N 
ENDROOT
BRANCH   1   2
ATOM      2  C   UNL     1      24.346   3.270  53.167  1.00  0.00    +0.124 C 
ATOM      3  C   UNL     1      23.488   4.440  52.708  1.00  0.00    +0.028 C 
ENDBRANCH   1   2
BRANCH   1   4
ATOM      4  C   UNL     1      25.851   2.146  51.626  1.00  0.00    +0.259 C 
ATOM      5  O   UNL     1      26.297   2.850  50.719  1.00  0.00    -0.269 OA
BRANCH   4   6
ATOM      6  C   UNL     1      26.811   1.212  52.277  1.00  0.00    +0.040 A 
ATOM      7  C   UNL     1      26.601  -0.173  52.275  1.00  0.00    +0.014 A 
ATOM      8  C   UNL     1      27.918   1.747  52.947  1.00  0.00    +0.014 A 
ATOM      9  C   UNL     1      27.520  -1.017  52.901  1.00  0.00    +0.001 A 
ATOM     10  C   UNL     1      28.833   0.900  53.573  1.00  0.00    +0.001 A 
ATOM     11  C   UNL     1      28.636  -0.481  53.544  1.00  0.00    +0.000 A 
ENDBRANCH   4   6
ENDBRANCH   1   4
BRANCH   1  12
ATOM     12  C   UNL     1      23.436   1.676  51.450  1.00  0.00    +0.116 A 
ATOM     13  N   UNL     1      23.086   2.023  50.159  1.00  0.00    -0.345 N 
ATOM     14  C   UNL     1      22.475   0.767  51.887  1.00  0.00    -0.008 A 
ATOM     15  C   UNL     1      21.970   1.342  49.750  1.00  0.00    +0.014 A 
ATOM     16  C   UNL     1      21.569   0.558  50.804  1.00  0.00    +0.028 A 
ATOM     17  H   UNL     1      23.559   2.715  49.598  1.00  0.00    +0.168 HD
ATOM     18  C   UNL     1      22.367   0.066  53.194  1.00  0.00    +0.048 C 
ATOM     19  C   UNL     1      21.400   1.525  48.394  1.00  0.00    +0.064 C 
ENDBRANCH   1  12
TORSDOF 4
ENDMDL
MODEL 4
REMARK VINA RESULT:    -6.390      2.639      5.314
REMARK INTER + INTRA:          -8.537
REMARK INTER:                  -7.709
REMARK INTRA:                  -0.829
REMARK UNBOUND:                -0.654
REMARK SMILES CCN(C(=O)c1ccccc1)c1[nH]c(C)cc1C
REMARK SMILES IDX 3 1 2 2 1 3 4 4 5 5 6 6 7 7 11 8 8 9 10 10 9 11 12 12 13 13
REMARK SMILES IDX 17 14 14 15 16 16 18 18 15 19
REMARK H PARENT 13 17
ROOT
ATOM      1  N   UNL     1      24.035   2.830  51.857  1.00  0.00    -0.294 N 
ENDROOT
BRANCH   1   2
ATOM      2  C   UNL     1      23.712   4.019  52.653  1.00  0.00    +0.124 C 
ATOM      3  C   UNL     1      22.308   4.539  52.378  1.00  0.00    +0.028 C 
ENDBRANCH   1   2
BRANCH   1   4
ATOM      4  C   UNL     1      24.037   3.028  50.459  1.00  0.00    +0.259 C 
ATOM      5  O   UNL     1      23.201   2.523  49.707  1.00  0.00    -0.269 OA
BRANCH   4   6
ATOM      6  C   UNL     1      25.012   3.965  49.836  1.00  0.00    +0.040 A 
ATOM      7  C   UNL     1      24.631   5.244  49.412  1.00  0.00    +0.014 A 
ATOM      8  C   UNL     1      26.327   3.526  49.631  1.00  0.00    +0.014 A 
ATOM      9  C   UNL     1      25.573   6.093  48.827  1.00  0.00    +0.001 A 
ATOM     10  C   UNL     1      27.264   4.378  49.044  1.00  0.00    +0.001 A 
ATOM     11  C   UNL     1      26.887   5.661  48.649  1.00  0.00    +0.000 A 
ENDBRANCH   4   6
ENDBRANCH   1   4
BRANCH   1  12
ATOM     12  C   UNL     1      24.052   1.539  52.425  1.00  0.00    +0.116 A 
ATOM     13  N   UNL     1      22.954   1.002  53.069  1.00  0.00    -0.345 N 
ATOM     14  C   UNL     1      25.078   0.606  52.555  1.00  0.00    -0.008 A 
ATOM     15  C   UNL     1      23.232  -0.244  53.563  1.00  0.00    +0.014 A 
ATOM     16  C   UNL     1      24.544  -0.514  53.261  1.00  0.00    +0.028 A 
ATOM     17  H   UNL     1      22.072   1.474  53.198  1.00  0.00    +0.168 HD
ATOM     18  C   UNL     1      26.475   0.664  52.045  1.00  0.00    +0.048 C 
ATOM     19  C   UNL     1      22.211  -1.041  54.285  1.00  0.00    +0.064 C 
ENDBRANCH   1  12
TORSDOF 4
ENDMDL
MODEL 5
REMARK VINA RESULT:    -6.348      1.064      2.056
REMARK INTER + INTRA:          -8.486
REMARK INTER:                  -8.205
REMARK INTRA:                  -0.281
REMARK UNBOUND:                -0.654
REMARK SMILES CCN(C(=O)c1ccccc1)c1[nH]c(C)cc1C
REMARK SMILES IDX 3 1 2 2 1 3 4 4 5 5 6 6 7 7 11 8 8 9 10 10 9 11 12 12 13 13
REMARK SMILES IDX 17 14 14 15 16 16 18 18 15 19
REMARK H PARENT 13 17
ROOT
ATOM      1  N   UNL     1      25.815   1.579  52.441  1.00  0.00    -0.294 N 
ENDROOT
BRANCH   1   2
ATOM      2  C   UNL     1      26.508   1.688  51.153  1.00  0.00    +0.124 C 
ATOM      3  C   UNL     1      26.549   3.118  50.633  1.00  0.00    +0.028 C 
ENDBRANCH   1   2
BRANCH   1   4
ATOM      4  C   UNL     1      26.615   1.135  53.516  1.00  0.00    +0.259 C 
ATOM      5  O   UNL     1      26.586   1.651  54.635  1.00  0.00    -0.269 OA
BRANCH   4   6
ATOM      6  C   UNL     1      27.470  -0.075  53.364  1.00  0.00    +0.040 A 
ATOM      7  C   UNL     1      26.947  -1.289  52.900  1.00  0.00    +0.014 A 
ATOM      8  C   UNL     1      28.816   0.003  53.743  1.00  0.00    +0.014 A 
ATOM      9  C   UNL     1      27.778  -2.403  52.776  1.00  0.00    +0.001 A 
ATOM     10  C   UNL     1      29.643  -1.114  53.619  1.00  0.00    +0.001 A 
ATOM     11  C   UNL     1      29.125  -2.314  53.130  1.00  0.00    +0.000 A 
ENDBRANCH   4   6
ENDBRANCH   1   4
BRANCH   1  12
ATOM     12  C   UNL     1      24.408   1.630  52.533  1.00  0.00    +0.116 A 
ATOM     13  N   UNL     1      23.677   2.701  52.056  1.00  0.00    -0.345 N 
ATOM     14  C   UNL     1      23.494   0.768  53.135  1.00  0.00    -0.008 A 
ATOM     15  C   UNL     1      22.339   2.531  52.294  1.00  0.00    +0.014 A 
ATOM     16  C   UNL     1      22.198   1.341  52.966  1.00  0.00    +0.028 A 
ATOM     17  H   UNL     1      24.071   3.522  51.622  1.00  0.00    +0.168 HD
ATOM     18  C   UNL     1      23.732  -0.539  53.804  1.00  0.00    +0.048 C 
ATOM     19  C   UNL     1      21.337   3.536  51.863  1.00  0.00    +0.064 C 
ENDBRANCH   1  12
TORSDOF 4
ENDMDL
MODEL 6
REMARK VINA RESULT:    -6.104      2.955      4.598
REMARK INTER + INTRA:          -8.185
REMARK INTER:                  -7.246
REMARK INTRA:                  -0.939
REMARK UNBOUND:                -0.654
REMARK SMILES CCN(C(=O)c1ccccc1)c1[nH]c(C)cc1C
REMARK SMILES IDX 3 1 2 2 1 3 4 4 5 5 6 6 7 7 11 8 8 9 10 10 9 11 12 12 13 13
REMARK SMILES IDX 17 14 14 15 16 16 18 18 15 19
REMARK H PARENT 13 17
ROOT
ATOM      1  N   UNL     1      23.699   3.059  50.993  1.00  0.00    -0.294 N 
ENDROOT
BRANCH   1   2
ATOM      2  C   UNL     1      23.267   4.190  51.822  1.00  0.00    +0.124 C 
ATOM      3  C   UNL     1      21.815   4.067  52.263  1.00  0.00    +0.028 C 
ENDBRANCH   1   2
BRANCH   1   4
ATOM      4  C   UNL     1      25.025   2.627  51.214  1.00  0.00    +0.259 C 
ATOM      5  O   UNL     1      26.011   3.289  50.887  1.00  0.00    -0.269 OA
BRANCH   4   6
ATOM      6  C   UNL     1      25.287   1.369  51.967  1.00  0.00    +0.040 A 
ATOM      7  C   UNL     1      24.393   0.894  52.935  1.00  0.00    +0.014 A 
ATOM      8  C   UNL     1      26.483   0.681  51.726  1.00  0.00    +0.014 A 
ATOM      9  C   UNL     1      24.676  -0.287  53.623  1.00  0.00    +0.001 A 
ATOM     10  C   UNL     1      26.762  -0.498  52.418  1.00  0.00    +0.001 A 
ATOM     11  C   UNL     1      25.856  -0.984  53.362  1.00  0.00    +0.000 A 
ENDBRANCH   4   6
ENDBRANCH   1   4
BRANCH   1  12
ATOM     12  C   UNL     1      22.955   2.633  49.873  1.00  0.00    +0.116 A 
ATOM     13  N   UNL     1      22.974   3.317  48.673  1.00  0.00    -0.345 N 
ATOM     14  C   UNL     1      22.044   1.590  49.716  1.00  0.00    -0.008 A 
ATOM     15  C   UNL     1      22.146   2.728  47.755  1.00  0.00    +0.014 A 
ATOM     16  C   UNL     1      21.554   1.656  48.377  1.00  0.00    +0.028 A 
ATOM     17  H   UNL     1      23.495   4.163  48.498  1.00  0.00    +0.168 HD
ATOM     18  C   UNL     1      21.639   0.540  50.688  1.00  0.00    +0.048 C 
ATOM     19  C   UNL     1      22.001   3.263  46.380  1.00  0.00    +0.064 C 
ENDBRANCH   1  12
TORSDOF 4
ENDMDL
MODEL 7
REMARK VINA RESULT:    -6.087      2.789      5.455
REMARK INTER + INTRA:          -8.164
REMARK INTER:                  -7.437
REMARK INTRA:                  -0.728
REMARK UNBOUND:                -0.654
REMARK SMILES CCN(C(=O)c1ccccc1)c1[nH]c(C)cc1C
REMARK SMILES IDX 3 1 2 2 1 3 4 4 5 5 6 6 7 7 11 8 8 9 10 10 9 11 12 12 13 13
REMARK SMILES IDX 17 14 14 15 16 16 18 18 15 19
REMARK H PARENT 13 17
ROOT
ATOM      1  N   UNL     1      23.464   2.933  51.527  1.00  0.00    -0.294 N 
ENDROOT
BRANCH   1   2
ATOM      2  C   UNL     1      22.828   4.110  52.127  1.00  0.00    +0.124 C 
ATOM      3  C   UNL     1      21.326   4.151  51.877  1.00  0.00    +0.028 C 
ENDBRANCH   1   2
BRANCH   1   4
ATOM      4  C   UNL     1      23.703   3.024  50.139  1.00  0.00    +0.259 C 
ATOM      5  O   UNL     1      22.980   2.490  49.295  1.00  0.00    -0.269 OA
BRANCH   4   6
ATOM      6  C   UNL     1      24.807   3.880  49.623  1.00  0.00    +0.040 A 
ATOM      7  C   UNL     1      26.135   3.434  49.610  1.00  0.00    +0.014 A 
ATOM      8  C   UNL     1      24.504   5.177  49.190  1.00  0.00    +0.014 A 
ATOM      9  C   UNL     1      27.144   4.267  49.125  1.00  0.00    +0.001 A 
ATOM     10  C   UNL     1      25.517   6.006  48.707  1.00  0.00    +0.001 A 
ATOM     11  C   UNL     1      26.834   5.549  48.669  1.00  0.00    +0.000 A 
ENDBRANCH   4   6
ENDBRANCH   1   4
BRANCH   1  12
ATOM     12  C   UNL     1      23.561   1.707  52.219  1.00  0.00    +0.116 A 
ATOM     13  N   UNL     1      24.683   1.356  52.943  1.00  0.00    -0.345 N 
ATOM     14  C   UNL     1      22.697   0.616  52.280  1.00  0.00    -0.008 A 
ATOM     15  C   UNL     1      24.548   0.108  53.491  1.00  0.00    +0.014 A 
ATOM     16  C   UNL     1      23.325  -0.375  53.092  1.00  0.00    +0.028 A 
ATOM     17  H   UNL     1      25.515   1.921  53.031  1.00  0.00    +0.168 HD
ATOM     18  C   UNL     1      21.345   0.450  51.683  1.00  0.00    +0.048 C 
ATOM     19  C   UNL     1      25.611  -0.495  54.330  1.00  0.00    +0.064 C 
ENDBRANCH   1  12
TORSDOF 4
ENDMDL
MODEL 8
REMARK VINA RESULT:    -5.965      2.854      5.248
REMARK INTER + INTRA:          -8.013
REMARK INTER:                  -7.285
REMARK INTRA:                  -0.728
REMARK UNBOUND:                -0.654
REMARK SMILES CCN(C(=O)c1ccccc1)c1[nH]c(C)cc1C
REMARK SMILES IDX 3 1 2 2 1 3 4 4 5 5 6 6 7 7 11 8 8 9 10 10 9 11 12 12 13 13
REMARK SMILES IDX 17 14 14 15 16 16 18 18 15 19
REMARK H PARENT 13 17
ROOT
ATOM      1  N   UNL     1      24.344   3.179  50.665  1.00  0.00    -0.294 N 
ENDROOT
BRANCH   1   2
ATOM      2  C   UNL     1      23.131   2.648  50.034  1.00  0.00    +0.124 C 
ATOM      3  C   UNL     1      23.099   2.897  48.532  1.00  0.00    +0.028 C 
ENDBRANCH   1   2
BRANCH   1   4
ATOM      4  C   UNL     1      24.533   2.801  52.012  1.00  0.00    +0.259 C 
ATOM      5  O   UNL     1      24.150   3.485  52.963  1.00  0.00    -0.269 OA
BRANCH   4   6
ATOM      6  C   UNL     1      25.124   1.474  52.342  1.00  0.00    +0.040 A 
ATOM      7  C   UNL     1      24.498   0.595  53.235  1.00  0.00    +0.014 A 
ATOM      8  C   UNL     1      26.359   1.132  51.778  1.00  0.00    +0.014 A 
ATOM      9  C   UNL     1      25.086  -0.638  53.524  1.00  0.00    +0.001 A 
ATOM     10  C   UNL     1      26.943  -0.101  52.071  1.00  0.00    +0.001 A 
ATOM     11  C   UNL     1      26.303  -0.986  52.939  1.00  0.00    +0.000 A 
ENDBRANCH   4   6
ENDBRANCH   1   4
BRANCH   1  12
ATOM     12  C   UNL     1      25.099   4.211  50.070  1.00  0.00    +0.116 A 
ATOM     13  N   UNL     1      26.345   3.988  49.516  1.00  0.00    -0.345 N 
ATOM     14  C   UNL     1      24.865   5.581  49.971  1.00  0.00    -0.008 A 
ATOM     15  C   UNL     1      26.888   5.150  49.037  1.00  0.00    +0.014 A 
ATOM     16  C   UNL     1      25.992   6.155  49.309  1.00  0.00    +0.028 A 
ATOM     17  H   UNL     1      26.818   3.097  49.498  1.00  0.00    +0.168 HD
ATOM     18  C   UNL     1      23.679   6.368  50.402  1.00  0.00    +0.048 C 
ATOM     19  C   UNL     1      28.216   5.176  48.378  1.00  0.00    +0.064 C 
ENDBRANCH   1  12
TORSDOF 4
ENDMDL
MODEL 9
REMARK VINA RESULT:    -5.901      4.030      6.374
REMARK INTER + INTRA:          -7.935
REMARK INTER:                  -6.914
REMARK INTRA:                  -1.021
REMARK UNBOUND:                -0.654
REMARK SMILES CCN(C(=O)c1ccccc1)c1[nH]c(C)cc1C
REMARK SMILES IDX 3 1 2 2 1 3 4 4 5 5 6 6 7 7 11 8 8 9 10 10 9 11 12 12 13 13
REMARK SMILES IDX 17 14 14 15 16 16 18 18 15 19
REMARK H PARENT 13 17
ROOT
ATOM      1  N   UNL     1      21.229   2.870  50.833  1.00  0.00    -0.294 N 
ENDROOT
BRANCH   1   2
ATOM      2  C   UNL     1      20.475   2.089  49.847  1.00  0.00    +0.124 C 
ATOM      3  C   UNL     1      21.306   0.973  49.229  1.00  0.00    +0.028 C 
ENDBRANCH   1   2
BRANCH   1   4
ATOM      4  C   UNL     1      20.960   2.550  52.182  1.00  0.00    +0.259 C 
ATOM      5  O   UNL     1      20.116   3.140  52.858  1.00  0.00    -0.269 OA
BRANCH   4   6
ATOM      6  C   UNL     1      21.632   1.386  52.824  1.00  0.00    +0.040 A 
ATOM      7  C   UNL     1      22.974   1.080  52.565  1.00  0.00    +0.014 A 
ATOM      8  C   UNL     1      20.878   0.557  53.665  1.00  0.00    +0.014 A 
ATOM      9  C   UNL     1      23.567  -0.024  53.181  1.00  0.00    +0.001 A 
ATOM     10  C   UNL     1      21.476  -0.546  54.276  1.00  0.00    +0.001 A 
ATOM     11  C   UNL     1      22.820  -0.831  54.038  1.00  0.00    +0.000 A 
ENDBRANCH   4   6
ENDBRANCH   1   4
BRANCH   1  12
ATOM     12  C   UNL     1      21.938   4.034  50.472  1.00  0.00    +0.116 A 
ATOM     13  N   UNL     1      21.415   5.300  50.649  1.00  0.00    -0.345 N 
ATOM     14  C   UNL     1      23.167   4.203  49.837  1.00  0.00    -0.008 A 
ATOM     15  C   UNL     1      22.277   6.260  50.190  1.00  0.00    +0.014 A 
ATOM     16  C   UNL     1      23.371   5.606  49.677  1.00  0.00    +0.028 A 
ATOM     17  H   UNL     1      20.502   5.501  51.030  1.00  0.00    +0.168 HD
ATOM     18  C   UNL     1      24.157   3.176  49.414  1.00  0.00    +0.048 C 
ATOM     19  C   UNL     1      21.955   7.705  50.280  1.00  0.00    +0.064 C 
ENDBRANCH   1  12
TORSDOF 4
ENDMDL
