REMARK SMILES c1ccc(-c2ncnc3ccc(N/N=N/Cc4ccc(N5CCOCC5)[nH]4)cc23)cc1
REMARK SMILES IDX 14 1 15 2 13 3 12 5 5 6 6 7 29 8 7 9 28 10 9 11 8 12 10 13
REMARK SMILES IDX 11 14 4 15 1 16 2 17 31 18 3 19 30 20 16 21 17 22 18 23
REMARK SMILES IDX 27 24 19 25 20 26 21 28 22 29 26 30 23 31 25 32 24 33
REMARK H PARENT 13 4 27 27
ROOT
ATOM      1  N   UNL     1       0.657  -0.185  -0.518  1.00  0.00    -0.074 NA
ATOM      2  N   UNL     1      -0.560  -0.168  -0.255  1.00  0.00    -0.165 NA
ENDROOT
BRANCH   1   3
ATOM      3  N   UNL     1       0.866  -1.296  -1.250  1.00  0.00    -0.260 N 
ATOM      4  H   UNL     1       0.099  -1.965  -1.227  1.00  0.00    +0.192 HD
BRANCH   3   5
ATOM      5  C   UNL     1       2.151  -1.867  -1.251  1.00  0.00    +0.059 A 
ATOM      6  C   UNL     1       5.783  -1.114  -0.503  1.00  0.00    +0.081 A 
ATOM      7  N   UNL     1       6.987  -1.729  -0.551  1.00  0.00    -0.236 NA
ATOM      8  C   UNL     1       4.589  -1.738  -0.907  1.00  0.00    +0.029 A 
ATOM      9  C   UNL     1       6.994  -2.969  -1.044  1.00  0.00    +0.223 A 
ATOM     10  C   UNL     1       3.290  -1.169  -0.834  1.00  0.00    +0.040 A 
ATOM     11  C   UNL     1       4.744  -3.034  -1.409  1.00  0.00    +0.074 A 
ATOM     12  N   UNL     1       5.929  -3.649  -1.486  1.00  0.00    -0.236 NA
ATOM     13  C   UNL     1       3.616  -3.708  -1.856  1.00  0.00    +0.031 A 
ATOM     14  C   UNL     1       2.339  -3.136  -1.799  1.00  0.00    +0.030 A 
BRANCH   6  15
ATOM     15  C   UNL     1       5.846   0.269  -0.003  1.00  0.00    +0.001 A 
ATOM     16  C   UNL     1       5.966   2.911   0.963  1.00  0.00    +0.000 A 
ATOM     17  C   UNL     1       5.615   2.669  -0.363  1.00  0.00    +0.001 A 
ATOM     18  C   UNL     1       6.268   1.846   1.808  1.00  0.00    +0.001 A 
ATOM     19  C   UNL     1       5.560   1.357  -0.843  1.00  0.00    +0.010 A 
ATOM     20  C   UNL     1       6.213   0.535   1.327  1.00  0.00    +0.010 A 
ENDBRANCH   6  15
ENDBRANCH   3   5
ENDBRANCH   1   3
BRANCH   2  21
ATOM     21  C   UNL     1      -0.914   0.996   0.568  1.00  0.00    +0.222 C 
BRANCH  21  22
ATOM     22  C   UNL     1      -2.281   0.807   1.129  1.00  0.00    +0.040 A 
ATOM     23  C   UNL     1      -2.716   0.655   2.431  1.00  0.00    +0.027 A 
ATOM     24  N   UNL     1      -3.397   0.788   0.324  1.00  0.00    -0.344 N 
ATOM     25  C   UNL     1      -4.131   0.569   2.398  1.00  0.00    +0.047 A 
ATOM     26  C   UNL     1      -4.535   0.630   1.078  1.00  0.00    +0.106 A 
ATOM     27  H   UNL     1      -3.389   0.912  -0.678  1.00  0.00    +0.168 HD
BRANCH  26  28
ATOM     28  N   UNL     1      -5.769   0.614   0.486  1.00  0.00    -0.354 N 
ATOM     29  C   UNL     1      -5.967  -0.269  -0.689  1.00  0.00    +0.146 C 
ATOM     30  C   UNL     1      -6.952   0.597   1.384  1.00  0.00    +0.146 C 
ATOM     31  C   UNL     1      -7.293   0.067  -1.393  1.00  0.00    +0.181 C 
ATOM     32  C   UNL     1      -8.235   0.896   0.592  1.00  0.00    +0.181 C 
ATOM     33  O   UNL     1      -8.413  -0.023  -0.493  1.00  0.00    -0.378 OA
ENDBRANCH  26  28
ENDBRANCH  21  22
ENDBRANCH   2  21
TORSDOF 6
