MODEL 1
REMARK VINA RESULT:    -6.705      0.000      0.000
REMARK INTER + INTRA:          -7.370
REMARK INTER:                  -7.097
REMARK INTRA:                  -0.273
REMARK UNBOUND:                -0.273
REMARK SMILES Clc1cccc(-c2ccccc2)c1
REMARK SMILES IDX 1 1 2 2 3 3 4 4 5 5 6 6 13 7 7 8 8 9 12 10 9 11 11 12 10 13
REMARK H PARENT
ROOT
ATOM      1 Cl   UNL     1      22.201  -1.121  54.485  1.00  0.00    -0.084 Cl
ATOM      2  C   UNL     1      23.400  -0.294  53.566  1.00  0.00    +0.041 A 
ATOM      3  C   UNL     1      23.015   0.681  52.651  1.00  0.00    +0.020 A 
ATOM      4  C   UNL     1      23.987   1.349  51.909  1.00  0.00    +0.002 A 
ATOM      5  C   UNL     1      25.337   1.037  52.087  1.00  0.00    +0.009 A 
ATOM      6  C   UNL     1      25.742   0.054  53.008  1.00  0.00    -0.017 A 
ATOM      7  C   UNL     1      24.747  -0.609  53.746  1.00  0.00    +0.029 A 
ENDROOT
BRANCH   6   8
ATOM      8  C   UNL     1      27.166  -0.272  53.191  1.00  0.00    -0.018 A 
ATOM      9  C   UNL     1      28.093   0.715  53.567  1.00  0.00    +0.009 A 
ATOM     10  C   UNL     1      27.640  -1.581  52.997  1.00  0.00    +0.009 A 
ATOM     11  C   UNL     1      29.444   0.407  53.742  1.00  0.00    +0.001 A 
ATOM     12  C   UNL     1      28.992  -1.890  53.172  1.00  0.00    +0.001 A 
ATOM     13  C   UNL     1      29.893  -0.897  53.545  1.00  0.00    +0.000 A 
ENDBRANCH   6   8
TORSDOF 1
ENDMDL
MODEL 2
REMARK VINA RESULT:    -6.507      1.543      2.041
REMARK INTER + INTRA:          -7.161
REMARK INTER:                  -6.887
REMARK INTRA:                  -0.274
REMARK UNBOUND:                -0.273
REMARK SMILES Clc1cccc(-c2ccccc2)c1
REMARK SMILES IDX 1 1 2 2 3 3 4 4 5 5 6 6 13 7 7 8 8 9 12 10 9 11 11 12 10 13
REMARK H PARENT
ROOT
ATOM      1 Cl   UNL     1      23.712   2.645  50.707  1.00  0.00    -0.084 Cl
ATOM      2  C   UNL     1      24.135   1.411  51.831  1.00  0.00    +0.041 A 
ATOM      3  C   UNL     1      23.134   0.753  52.541  1.00  0.00    +0.020 A 
ATOM      4  C   UNL     1      23.479  -0.245  53.450  1.00  0.00    +0.002 A 
ATOM      5  C   UNL     1      24.822  -0.579  53.642  1.00  0.00    +0.009 A 
ATOM      6  C   UNL     1      25.844   0.076  52.933  1.00  0.00    -0.017 A 
ATOM      7  C   UNL     1      25.477   1.081  52.022  1.00  0.00    +0.029 A 
ENDROOT
BRANCH   6   8
ATOM      8  C   UNL     1      27.258  -0.278  53.140  1.00  0.00    -0.018 A 
ATOM      9  C   UNL     1      28.202   0.693  53.514  1.00  0.00    +0.009 A 
ATOM     10  C   UNL     1      27.706  -1.600  52.971  1.00  0.00    +0.009 A 
ATOM     11  C   UNL     1      29.543   0.358  53.712  1.00  0.00    +0.001 A 
ATOM     12  C   UNL     1      29.048  -1.937  53.168  1.00  0.00    +0.001 A 
ATOM     13  C   UNL     1      29.966  -0.958  53.539  1.00  0.00    +0.000 A 
ENDBRANCH   6   8
TORSDOF 1
ENDMDL
MODEL 3
REMARK VINA RESULT:    -6.346      1.687      2.531
REMARK INTER + INTRA:          -6.990
REMARK INTER:                  -6.723
REMARK INTRA:                  -0.267
REMARK UNBOUND:                -0.273
REMARK SMILES Clc1cccc(-c2ccccc2)c1
REMARK SMILES IDX 1 1 2 2 3 3 4 4 5 5 6 6 13 7 7 8 8 9 12 10 9 11 11 12 10 13
REMARK H PARENT
ROOT
ATOM      1 Cl   UNL     1      21.104   1.012  51.678  1.00  0.00    -0.084 Cl
ATOM      2  C   UNL     1      21.982   0.181  52.902  1.00  0.00    +0.041 A 
ATOM      3  C   UNL     1      21.294  -0.492  53.908  1.00  0.00    +0.020 A 
ATOM      4  C   UNL     1      22.007  -1.164  54.899  1.00  0.00    +0.002 A 
ATOM      5  C   UNL     1      23.404  -1.159  54.876  1.00  0.00    +0.009 A 
ATOM      6  C   UNL     1      24.114  -0.484  53.868  1.00  0.00    -0.017 A 
ATOM      7  C   UNL     1      23.378   0.189  52.879  1.00  0.00    +0.029 A 
ENDROOT
BRANCH   6   8
ATOM      8  C   UNL     1      25.586  -0.481  53.850  1.00  0.00    -0.018 A 
ATOM      9  C   UNL     1      26.321   0.244  54.803  1.00  0.00    +0.009 A 
ATOM     10  C   UNL     1      26.300  -1.204  52.879  1.00  0.00    +0.009 A 
ATOM     11  C   UNL     1      27.718   0.248  54.787  1.00  0.00    +0.001 A 
ATOM     12  C   UNL     1      27.698  -1.201  52.862  1.00  0.00    +0.001 A 
ATOM     13  C   UNL     1      28.406  -0.476  53.816  1.00  0.00    +0.000 A 
ENDBRANCH   6   8
TORSDOF 1
ENDMDL
MODEL 4
REMARK VINA RESULT:    -6.307      2.380      5.403
REMARK INTER + INTRA:          -6.949
REMARK INTER:                  -6.658
REMARK INTRA:                  -0.291
REMARK UNBOUND:                -0.273
REMARK SMILES Clc1cccc(-c2ccccc2)c1
REMARK SMILES IDX 1 1 2 2 3 3 4 4 5 5 6 6 13 7 7 8 8 9 12 10 9 11 11 12 10 13
REMARK H PARENT
ROOT
ATOM      1 Cl   UNL     1      28.290  -1.059  53.201  1.00  0.00    -0.084 Cl
ATOM      2  C   UNL     1      26.921  -0.116  52.757  1.00  0.00    +0.041 A 
ATOM      3  C   UNL     1      27.098   1.050  52.017  1.00  0.00    +0.020 A 
ATOM      4  C   UNL     1      25.987   1.812  51.658  1.00  0.00    +0.002 A 
ATOM      5  C   UNL     1      24.708   1.402  52.042  1.00  0.00    +0.009 A 
ATOM      6  C   UNL     1      24.512   0.228  52.789  1.00  0.00    -0.017 A 
ATOM      7  C   UNL     1      25.644  -0.526  53.143  1.00  0.00    +0.029 A 
ENDROOT
BRANCH   6   8
ATOM      8  C   UNL     1      23.162  -0.198  53.192  1.00  0.00    -0.018 A 
ATOM      9  C   UNL     1      22.962  -0.984  54.340  1.00  0.00    +0.009 A 
ATOM     10  C   UNL     1      22.032   0.169  52.441  1.00  0.00    +0.009 A 
ATOM     11  C   UNL     1      21.681  -1.389  54.724  1.00  0.00    +0.001 A 
ATOM     12  C   UNL     1      20.750  -0.236  52.824  1.00  0.00    +0.001 A 
ATOM     13  C   UNL     1      20.575  -1.014  53.965  1.00  0.00    +0.000 A 
ENDBRANCH   6   8
TORSDOF 1
ENDMDL
MODEL 5
REMARK VINA RESULT:    -6.306      2.293      5.125
REMARK INTER + INTRA:          -6.948
REMARK INTER:                  -6.668
REMARK INTRA:                  -0.280
REMARK UNBOUND:                -0.273
REMARK SMILES Clc1cccc(-c2ccccc2)c1
REMARK SMILES IDX 1 1 2 2 3 3 4 4 5 5 6 6 13 7 7 8 8 9 12 10 9 11 11 12 10 13
REMARK H PARENT
ROOT
ATOM      1 Cl   UNL     1      29.632  -1.640  53.543  1.00  0.00    -0.084 Cl
ATOM      2  C   UNL     1      28.573  -0.284  53.486  1.00  0.00    +0.041 A 
ATOM      3  C   UNL     1      29.097   1.003  53.573  1.00  0.00    +0.020 A 
ATOM      4  C   UNL     1      28.238   2.100  53.526  1.00  0.00    +0.002 A 
ATOM      5  C   UNL     1      26.861   1.901  53.393  1.00  0.00    +0.009 A 
ATOM      6  C   UNL     1      26.317   0.608  53.305  1.00  0.00    -0.017 A 
ATOM      7  C   UNL     1      27.198  -0.485  53.355  1.00  0.00    +0.029 A 
ENDROOT
BRANCH   6   8
ATOM      8  C   UNL     1      24.865   0.404  53.166  1.00  0.00    -0.018 A 
ATOM      9  C   UNL     1      24.112   1.159  52.251  1.00  0.00    +0.009 A 
ATOM     10  C   UNL     1      24.190  -0.553  53.943  1.00  0.00    +0.009 A 
ATOM     11  C   UNL     1      22.735   0.967  52.118  1.00  0.00    +0.001 A 
ATOM     12  C   UNL     1      22.812  -0.746  53.811  1.00  0.00    +0.001 A 
ATOM     13  C   UNL     1      22.085   0.013  52.898  1.00  0.00    +0.000 A 
ENDBRANCH   6   8
TORSDOF 1
ENDMDL
MODEL 6
REMARK VINA RESULT:    -6.295      1.868      3.406
REMARK INTER + INTRA:          -6.937
REMARK INTER:                  -6.646
REMARK INTRA:                  -0.291
REMARK UNBOUND:                -0.273
REMARK SMILES Clc1cccc(-c2ccccc2)c1
REMARK SMILES IDX 1 1 2 2 3 3 4 4 5 5 6 6 13 7 7 8 8 9 12 10 9 11 11 12 10 13
REMARK H PARENT
ROOT
ATOM      1 Cl   UNL     1      19.656   0.513  51.637  1.00  0.00    -0.084 Cl
ATOM      2  C   UNL     1      20.884  -0.062  52.697  1.00  0.00    +0.041 A 
ATOM      3  C   UNL     1      20.531  -0.778  53.837  1.00  0.00    +0.020 A 
ATOM      4  C   UNL     1      21.528  -1.243  54.693  1.00  0.00    +0.002 A 
ATOM      5  C   UNL     1      22.871  -0.988  54.403  1.00  0.00    +0.009 A 
ATOM      6  C   UNL     1      23.243  -0.266  53.256  1.00  0.00    -0.017 A 
ATOM      7  C   UNL     1      22.225   0.195  52.405  1.00  0.00    +0.029 A 
ENDROOT
BRANCH   6   8
ATOM      8  C   UNL     1      24.660   0.001  52.955  1.00  0.00    -0.018 A 
ATOM      9  C   UNL     1      25.673  -0.856  53.419  1.00  0.00    +0.009 A 
ATOM     10  C   UNL     1      25.041   1.120  52.194  1.00  0.00    +0.009 A 
ATOM     11  C   UNL     1      27.017  -0.604  53.133  1.00  0.00    +0.001 A 
ATOM     12  C   UNL     1      26.386   1.373  51.909  1.00  0.00    +0.001 A 
ATOM     13  C   UNL     1      27.373   0.510  52.378  1.00  0.00    +0.000 A 
ENDBRANCH   6   8
TORSDOF 1
ENDMDL
MODEL 7
REMARK VINA RESULT:    -6.230      2.505      5.639
REMARK INTER + INTRA:          -6.868
REMARK INTER:                  -6.575
REMARK INTRA:                  -0.293
REMARK UNBOUND:                -0.273
REMARK SMILES Clc1cccc(-c2ccccc2)c1
REMARK SMILES IDX 1 1 2 2 3 3 4 4 5 5 6 6 13 7 7 8 8 9 12 10 9 11 11 12 10 13
REMARK H PARENT
ROOT
ATOM      1 Cl   UNL     1      26.512   2.948  50.658  1.00  0.00    -0.084 Cl
ATOM      2  C   UNL     1      26.182   1.611  51.690  1.00  0.00    +0.041 A 
ATOM      3  C   UNL     1      27.234   0.842  52.180  1.00  0.00    +0.020 A 
ATOM      4  C   UNL     1      26.964  -0.240  53.016  1.00  0.00    +0.002 A 
ATOM      5  C   UNL     1      25.643  -0.546  53.355  1.00  0.00    +0.009 A 
ATOM      6  C   UNL     1      24.570   0.220  52.867  1.00  0.00    -0.017 A 
ATOM      7  C   UNL     1      24.862   1.306  52.026  1.00  0.00    +0.029 A 
ENDROOT
BRANCH   6   8
ATOM      8  C   UNL     1      23.180  -0.108  53.226  1.00  0.00    -0.018 A 
ATOM      9  C   UNL     1      22.889  -0.894  54.354  1.00  0.00    +0.009 A 
ATOM     10  C   UNL     1      22.103   0.358  52.453  1.00  0.00    +0.009 A 
ATOM     11  C   UNL     1      21.571  -1.205  54.696  1.00  0.00    +0.001 A 
ATOM     12  C   UNL     1      20.783   0.047  52.794  1.00  0.00    +0.001 A 
ATOM     13  C   UNL     1      20.518  -0.734  53.916  1.00  0.00    +0.000 A 
ENDBRANCH   6   8
TORSDOF 1
ENDMDL
MODEL 8
REMARK VINA RESULT:    -6.216      2.326      5.415
REMARK INTER + INTRA:          -6.852
REMARK INTER:                  -6.578
REMARK INTRA:                  -0.274
REMARK UNBOUND:                -0.273
REMARK SMILES Clc1cccc(-c2ccccc2)c1
REMARK SMILES IDX 1 1 2 2 3 3 4 4 5 5 6 6 13 7 7 8 8 9 12 10 9 11 11 12 10 13
REMARK H PARENT
ROOT
ATOM      1 Cl   UNL     1      28.456   2.500  53.705  1.00  0.00    -0.084 Cl
ATOM      2  C   UNL     1      27.537   1.067  53.457  1.00  0.00    +0.041 A 
ATOM      3  C   UNL     1      28.185  -0.118  53.121  1.00  0.00    +0.020 A 
ATOM      4  C   UNL     1      27.438  -1.278  52.921  1.00  0.00    +0.002 A 
ATOM      5  C   UNL     1      26.048  -1.243  53.057  1.00  0.00    +0.009 A 
ATOM      6  C   UNL     1      25.379  -0.054  53.395  1.00  0.00    -0.017 A 
ATOM      7  C   UNL     1      26.148   1.104  53.592  1.00  0.00    +0.029 A 
ENDROOT
BRANCH   6   8
ATOM      8  C   UNL     1      23.913  -0.024  53.537  1.00  0.00    -0.018 A 
ATOM      9  C   UNL     1      23.130   0.859  52.775  1.00  0.00    +0.009 A 
ATOM     10  C   UNL     1      23.254  -0.878  54.438  1.00  0.00    +0.009 A 
ATOM     11  C   UNL     1      21.740   0.889  52.907  1.00  0.00    +0.001 A 
ATOM     12  C   UNL     1      21.863  -0.848  54.572  1.00  0.00    +0.001 A 
ATOM     13  C   UNL     1      21.107   0.034  53.807  1.00  0.00    +0.000 A 
ENDBRANCH   6   8
TORSDOF 1
ENDMDL
MODEL 9
REMARK VINA RESULT:    -6.006      3.134      5.353
REMARK INTER + INTRA:          -6.630
REMARK INTER:                  -6.334
REMARK INTRA:                  -0.296
REMARK UNBOUND:                -0.273
REMARK SMILES Clc1cccc(-c2ccccc2)c1
REMARK SMILES IDX 1 1 2 2 3 3 4 4 5 5 6 6 13 7 7 8 8 9 12 10 9 11 11 12 10 13
REMARK H PARENT
ROOT
ATOM      1 Cl   UNL     1      24.292   3.770  49.478  1.00  0.00    -0.084 Cl
ATOM      2  C   UNL     1      24.819   2.623  50.648  1.00  0.00    +0.041 A 
ATOM      3  C   UNL     1      26.181   2.436  50.865  1.00  0.00    +0.020 A 
ATOM      4  C   UNL     1      26.606   1.507  51.813  1.00  0.00    +0.002 A 
ATOM      5  C   UNL     1      25.664   0.771  52.537  1.00  0.00    +0.009 A 
ATOM      6  C   UNL     1      24.285   0.947  52.329  1.00  0.00    -0.017 A 
ATOM      7  C   UNL     1      23.877   1.887  51.368  1.00  0.00    +0.029 A 
ENDROOT
BRANCH   6   8
ATOM      8  C   UNL     1      23.297   0.168  53.094  1.00  0.00    -0.018 A 
ATOM      9  C   UNL     1      23.681  -0.590  54.213  1.00  0.00    +0.009 A 
ATOM     10  C   UNL     1      21.940   0.159  52.727  1.00  0.00    +0.009 A 
ATOM     11  C   UNL     1      22.745  -1.329  54.940  1.00  0.00    +0.001 A 
ATOM     12  C   UNL     1      21.003  -0.581  53.454  1.00  0.00    +0.001 A 
ATOM     13  C   UNL     1      21.405  -1.324  54.560  1.00  0.00    +0.000 A 
ENDBRANCH   6   8
TORSDOF 1
ENDMDL
