REMARK SMILES Cc1cccc(C=C2C(=O)N(C)c3ncnc(-c4cc(C)c(N5CCOCC5)[nH]4)c32)c1
REMARK SMILES IDX 7 1 8 2 9 3 10 4 11 5 12 6 13 7 14 8 15 9 16 10 17 11 30 12
REMARK SMILES IDX 6 13 2 14 3 15 31 16 4 17 5 18 1 19 18 20 19 21 29 22 20 23
REMARK SMILES IDX 22 24 21 26 23 27 24 28 28 29 25 30 27 31 26 32
REMARK H PARENT 29 25
ROOT
ATOM      1  C   UNL     1       1.915  -0.182  -0.681  1.00  0.00    +0.022 C 
ATOM      2  C   UNL     1       2.215   1.069  -0.297  1.00  0.00    +0.054 C 
ATOM      3  C   UNL     1       3.584   1.705  -0.338  1.00  0.00    +0.260 C 
ATOM      4  O   UNL     1       4.596   1.269  -0.850  1.00  0.00    -0.269 OA
ATOM      5  N   UNL     1       3.433   2.897   0.351  1.00  0.00    -0.295 N 
ATOM      6  C   UNL     1       4.471   3.860   0.593  1.00  0.00    +0.155 C 
ATOM      7  C   UNL     1       2.110   3.095   0.756  1.00  0.00    +0.147 A 
ATOM      8  N   UNL     1       1.695   4.173   1.433  1.00  0.00    -0.218 NA
ATOM      9  C   UNL     1       0.386   4.170   1.702  1.00  0.00    +0.225 A 
ATOM     10  N   UNL     1      -0.498   3.225   1.335  1.00  0.00    -0.234 NA
ATOM     11  C   UNL     1      -0.019   2.179   0.615  1.00  0.00    +0.100 A 
ATOM     12  C   UNL     1       1.317   2.038   0.340  1.00  0.00    +0.058 A 
ENDROOT
BRANCH   1  13
ATOM     13  C   UNL     1       2.833  -1.161  -1.272  1.00  0.00    -0.025 A 
ATOM     14  C   UNL     1       4.700  -2.712  -1.081  1.00  0.00    -0.051 A 
ATOM     15  C   UNL     1       4.517  -3.079  -2.420  1.00  0.00    +0.003 A 
ATOM     16  C   UNL     1       3.857  -1.745  -0.516  1.00  0.00    +0.011 A 
ATOM     17  C   UNL     1       3.492  -2.507  -3.174  1.00  0.00    +0.001 A 
ATOM     18  C   UNL     1       2.649  -1.555  -2.601  1.00  0.00    +0.008 A 
ATOM     19  C   UNL     1       5.828  -3.292  -0.281  1.00  0.00    +0.044 C 
ENDBRANCH   1  13
BRANCH  11  20
ATOM     20  C   UNL     1      -1.079   1.294   0.153  1.00  0.00    +0.067 A 
ATOM     21  C   UNL     1      -1.329   0.706  -1.071  1.00  0.00    +0.035 A 
ATOM     22  N   UNL     1      -2.150   0.972   0.951  1.00  0.00    -0.340 N 
ATOM     23  C   UNL     1      -2.529  -0.061  -0.973  1.00  0.00    -0.008 A 
ATOM     24  C   UNL     1      -3.018   0.119   0.313  1.00  0.00    +0.109 A 
ATOM     25  H   UNL     1      -2.254   1.298   1.899  1.00  0.00    +0.168 HD
ATOM     26  C   UNL     1      -3.116  -0.849  -2.089  1.00  0.00    +0.048 C 
BRANCH  24  27
ATOM     27  N   UNL     1      -4.102  -0.370   0.976  1.00  0.00    -0.353 N 
ATOM     28  C   UNL     1      -4.730   0.345   2.101  1.00  0.00    +0.146 C 
ATOM     29  C   UNL     1      -4.815  -1.571   0.520  1.00  0.00    +0.146 C 
ATOM     30  C   UNL     1      -6.240   0.061   2.139  1.00  0.00    +0.181 C 
ATOM     31  C   UNL     1      -5.591  -2.201   1.690  1.00  0.00    +0.181 C 
ATOM     32  O   UNL     1      -6.566  -1.329   2.283  1.00  0.00    -0.378 OA
ENDBRANCH  24  27
ENDBRANCH  11  20
TORSDOF 3
