MODEL 1
REMARK VINA RESULT:    -7.274      0.000      0.000
REMARK INTER + INTRA:          -8.916
REMARK INTER:                  -8.337
REMARK INTRA:                  -0.579
REMARK UNBOUND:                -0.579
REMARK SMILES O=[N+]([O-])c1cc(-c2ccccc2)ccc1O
REMARK SMILES IDX 4 1 5 2 6 3 13 4 14 5 15 6 2 7 1 8 3 9 16 10 7 12 8 13 12 14
REMARK SMILES IDX 9 15 11 16 10 17
REMARK H PARENT 16 11
ROOT
ATOM      1  C   UNL     1      27.058   0.460  54.074  1.00  0.00    +0.311 A 
ATOM      2  C   UNL     1      25.737   0.027  54.254  1.00  0.00    +0.098 A 
ATOM      3  C   UNL     1      24.755   0.370  53.313  1.00  0.00    -0.011 A 
ATOM      4  C   UNL     1      25.141   1.150  52.206  1.00  0.00    +0.013 A 
ATOM      5  C   UNL     1      26.464   1.585  52.040  1.00  0.00    +0.054 A 
ATOM      6  C   UNL     1      27.430   1.241  52.981  1.00  0.00    +0.194 A 
ENDROOT
BRANCH   1   7
ATOM      7  N   UNL     1      28.041   0.072  55.062  1.00  0.00    +0.066 N 
ATOM      8  O   UNL     1      27.669   0.062  56.245  1.00  0.00    -0.258 OA
ATOM      9  O   UNL     1      29.157  -0.278  54.655  1.00  0.00    -0.258 OA
ENDBRANCH   1   7
BRANCH   6  10
ATOM     10  O   UNL     1      28.709   1.689  52.839  1.00  0.00    -0.502 OA
ATOM     11  H   UNL     1      29.287   1.256  53.493  1.00  0.00    +0.293 HD
ENDBRANCH   6  10
BRANCH   3  12
ATOM     12  C   UNL     1      23.362  -0.074  53.478  1.00  0.00    -0.018 A 
ATOM     13  C   UNL     1      22.360   0.339  52.583  1.00  0.00    +0.009 A 
ATOM     14  C   UNL     1      22.992  -0.922  54.536  1.00  0.00    +0.009 A 
ATOM     15  C   UNL     1      21.037  -0.082  52.739  1.00  0.00    +0.001 A 
ATOM     16  C   UNL     1      21.668  -1.342  54.694  1.00  0.00    +0.001 A 
ATOM     17  C   UNL     1      20.692  -0.921  53.794  1.00  0.00    +0.000 A 
ENDBRANCH   3  12
TORSDOF 3
ENDMDL
MODEL 2
REMARK VINA RESULT:    -7.030      3.474      5.644
REMARK INTER + INTRA:          -8.637
REMARK INTER:                  -8.080
REMARK INTRA:                  -0.556
REMARK UNBOUND:                -0.579
REMARK SMILES O=[N+]([O-])c1cc(-c2ccccc2)ccc1O
REMARK SMILES IDX 4 1 5 2 6 3 13 4 14 5 15 6 2 7 1 8 3 9 16 10 7 12 8 13 12 14
REMARK SMILES IDX 9 15 11 16 10 17
REMARK H PARENT 16 11
ROOT
ATOM      1  C   UNL     1      23.401  -0.492  53.874  1.00  0.00    +0.311 A 
ATOM      2  C   UNL     1      24.769  -0.779  53.969  1.00  0.00    +0.098 A 
ATOM      3  C   UNL     1      25.702   0.031  53.305  1.00  0.00    -0.011 A 
ATOM      4  C   UNL     1      25.217   1.120  52.554  1.00  0.00    +0.013 A 
ATOM      5  C   UNL     1      23.845   1.393  52.459  1.00  0.00    +0.054 A 
ATOM      6  C   UNL     1      22.929   0.581  53.121  1.00  0.00    +0.194 A 
ENDROOT
BRANCH   1   7
ATOM      7  N   UNL     1      22.477  -1.347  54.587  1.00  0.00    +0.066 N 
ATOM      8  O   UNL     1      22.766  -1.626  55.760  1.00  0.00    -0.258 OA
ATOM      9  O   UNL     1      21.441  -1.688  54.000  1.00  0.00    -0.258 OA
ENDBRANCH   1   7
BRANCH   6  10
ATOM     10  O   UNL     1      21.593   0.824  53.004  1.00  0.00    -0.502 OA
ATOM     11  H   UNL     1      21.424   1.389  52.230  1.00  0.00    +0.293 HD
ENDBRANCH   6  10
BRANCH   3  12
ATOM     12  C   UNL     1      27.144  -0.247  53.390  1.00  0.00    -0.018 A 
ATOM     13  C   UNL     1      27.656  -1.517  53.073  1.00  0.00    +0.009 A 
ATOM     14  C   UNL     1      28.052   0.747  53.793  1.00  0.00    +0.009 A 
ATOM     15  C   UNL     1      29.025  -1.782  53.153  1.00  0.00    +0.001 A 
ATOM     16  C   UNL     1      29.421   0.482  53.875  1.00  0.00    +0.001 A 
ATOM     17  C   UNL     1      29.907  -0.783  53.555  1.00  0.00    +0.000 A 
ENDBRANCH   3  12
TORSDOF 3
ENDMDL
MODEL 3
REMARK VINA RESULT:    -7.004      2.569      4.438
REMARK INTER + INTRA:          -8.607
REMARK INTER:                  -8.040
REMARK INTRA:                  -0.567
REMARK UNBOUND:                -0.579
REMARK SMILES O=[N+]([O-])c1cc(-c2ccccc2)ccc1O
REMARK SMILES IDX 4 1 5 2 6 3 13 4 14 5 15 6 2 7 1 8 3 9 16 10 7 12 8 13 12 14
REMARK SMILES IDX 9 15 11 16 10 17
REMARK H PARENT 16 11
ROOT
ATOM      1  C   UNL     1      24.032  -0.749  54.311  1.00  0.00    +0.311 A 
ATOM      2  C   UNL     1      23.845  -0.073  53.098  1.00  0.00    +0.098 A 
ATOM      3  C   UNL     1      22.548   0.141  52.610  1.00  0.00    -0.011 A 
ATOM      4  C   UNL     1      21.466  -0.342  53.370  1.00  0.00    +0.013 A 
ATOM      5  C   UNL     1      21.664  -1.025  54.579  1.00  0.00    +0.054 A 
ATOM      6  C   UNL     1      22.956  -1.233  55.053  1.00  0.00    +0.194 A 
ENDROOT
BRANCH   1   7
ATOM      7  N   UNL     1      25.387  -0.935  54.783  1.00  0.00    +0.066 N 
ATOM      8  O   UNL     1      26.249  -1.174  53.925  1.00  0.00    -0.258 OA
ATOM      9  O   UNL     1      25.598  -0.784  55.995  1.00  0.00    -0.258 OA
ENDBRANCH   1   7
BRANCH   6  10
ATOM     10  O   UNL     1      23.154  -1.924  56.210  1.00  0.00    -0.502 OA
ATOM     11  H   UNL     1      23.994  -1.652  56.620  1.00  0.00    +0.293 HD
ENDBRANCH   6  10
BRANCH   3  12
ATOM     12  C   UNL     1      22.325   0.849  51.339  1.00  0.00    -0.018 A 
ATOM     13  C   UNL     1      21.240   0.522  50.508  1.00  0.00    +0.009 A 
ATOM     14  C   UNL     1      23.190   1.874  50.919  1.00  0.00    +0.009 A 
ATOM     15  C   UNL     1      21.027   1.195  49.302  1.00  0.00    +0.001 A 
ATOM     16  C   UNL     1      22.979   2.546  49.712  1.00  0.00    +0.001 A 
ATOM     17  C   UNL     1      21.897   2.205  48.905  1.00  0.00    +0.000 A 
ENDBRANCH   3  12
TORSDOF 3
ENDMDL
MODEL 4
REMARK VINA RESULT:    -6.795      2.112      3.736
REMARK INTER + INTRA:          -8.367
REMARK INTER:                  -7.745
REMARK INTRA:                  -0.622
REMARK UNBOUND:                -0.579
REMARK SMILES O=[N+]([O-])c1cc(-c2ccccc2)ccc1O
REMARK SMILES IDX 4 1 5 2 6 3 13 4 14 5 15 6 2 7 1 8 3 9 16 10 7 12 8 13 12 14
REMARK SMILES IDX 9 15 11 16 10 17
REMARK H PARENT 16 11
ROOT
ATOM      1  C   UNL     1      24.553  -0.484  54.110  1.00  0.00    +0.311 A 
ATOM      2  C   UNL     1      23.672  -0.063  53.104  1.00  0.00    +0.098 A 
ATOM      3  C   UNL     1      22.299  -0.325  53.224  1.00  0.00    -0.011 A 
ATOM      4  C   UNL     1      21.853  -1.015  54.368  1.00  0.00    +0.013 A 
ATOM      5  C   UNL     1      22.745  -1.438  55.364  1.00  0.00    +0.054 A 
ATOM      6  C   UNL     1      24.105  -1.175  55.234  1.00  0.00    +0.194 A 
ENDROOT
BRANCH   1   7
ATOM      7  N   UNL     1      25.958  -0.180  53.951  1.00  0.00    +0.066 N 
ATOM      8  O   UNL     1      26.271   1.019  53.929  1.00  0.00    -0.258 OA
ATOM      9  O   UNL     1      26.750  -1.132  53.909  1.00  0.00    -0.258 OA
ENDBRANCH   1   7
BRANCH   6  10
ATOM     10  O   UNL     1      24.978  -1.613  56.183  1.00  0.00    -0.502 OA
ATOM     11  H   UNL     1      25.807  -1.106  56.133  1.00  0.00    +0.293 HD
ENDBRANCH   6  10
BRANCH   3  12
ATOM     12  C   UNL     1      21.352   0.107  52.184  1.00  0.00    -0.018 A 
ATOM     13  C   UNL     1      21.808   0.644  50.968  1.00  0.00    +0.009 A 
ATOM     14  C   UNL     1      19.964  -0.002  52.376  1.00  0.00    +0.009 A 
ATOM     15  C   UNL     1      20.910   1.054  49.979  1.00  0.00    +0.001 A 
ATOM     16  C   UNL     1      19.065   0.410  51.389  1.00  0.00    +0.001 A 
ATOM     17  C   UNL     1      19.539   0.938  50.191  1.00  0.00    +0.000 A 
ENDBRANCH   3  12
TORSDOF 3
ENDMDL
MODEL 5
REMARK VINA RESULT:    -6.704      3.596      5.482
REMARK INTER + INTRA:          -8.262
REMARK INTER:                  -7.680
REMARK INTRA:                  -0.582
REMARK UNBOUND:                -0.579
REMARK SMILES O=[N+]([O-])c1cc(-c2ccccc2)ccc1O
REMARK SMILES IDX 4 1 5 2 6 3 13 4 14 5 15 6 2 7 1 8 3 9 16 10 7 12 8 13 12 14
REMARK SMILES IDX 9 15 11 16 10 17
REMARK H PARENT 16 11
ROOT
ATOM      1  C   UNL     1      22.679  -0.486  54.228  1.00  0.00    +0.311 A 
ATOM      2  C   UNL     1      23.022   0.394  53.192  1.00  0.00    +0.098 A 
ATOM      3  C   UNL     1      24.372   0.645  52.906  1.00  0.00    -0.011 A 
ATOM      4  C   UNL     1      25.346  -0.006  53.687  1.00  0.00    +0.013 A 
ATOM      5  C   UNL     1      24.992  -0.878  54.727  1.00  0.00    +0.054 A 
ATOM      6  C   UNL     1      23.650  -1.118  55.002  1.00  0.00    +0.194 A 
ENDROOT
BRANCH   1   7
ATOM      7  N   UNL     1      21.274  -0.725  54.478  1.00  0.00    +0.066 N 
ATOM      8  O   UNL     1      20.938  -1.899  54.692  1.00  0.00    -0.258 OA
ATOM      9  O   UNL     1      20.523   0.259  54.520  1.00  0.00    -0.258 OA
ENDBRANCH   1   7
BRANCH   6  10
ATOM     10  O   UNL     1      23.302  -1.939  56.033  1.00  0.00    -0.502 OA
ATOM     11  H   UNL     1      24.031  -2.553  56.230  1.00  0.00    +0.293 HD
ENDBRANCH   6  10
BRANCH   3  12
ATOM     12  C   UNL     1      24.758   1.562  51.823  1.00  0.00    -0.018 A 
ATOM     13  C   UNL     1      23.791   2.138  50.981  1.00  0.00    +0.009 A 
ATOM     14  C   UNL     1      26.106   1.890  51.597  1.00  0.00    +0.009 A 
ATOM     15  C   UNL     1      24.158   3.009  49.952  1.00  0.00    +0.001 A 
ATOM     16  C   UNL     1      26.474   2.760  50.567  1.00  0.00    +0.001 A 
ATOM     17  C   UNL     1      25.498   3.319  49.745  1.00  0.00    +0.000 A 
ENDBRANCH   3  12
TORSDOF 3
ENDMDL
MODEL 6
REMARK VINA RESULT:    -6.646      1.677      2.160
REMARK INTER + INTRA:          -8.196
REMARK INTER:                  -7.596
REMARK INTRA:                  -0.601
REMARK UNBOUND:                -0.579
REMARK SMILES O=[N+]([O-])c1cc(-c2ccccc2)ccc1O
REMARK SMILES IDX 4 1 5 2 6 3 13 4 14 5 15 6 2 7 1 8 3 9 16 10 7 12 8 13 12 14
REMARK SMILES IDX 9 15 11 16 10 17
REMARK H PARENT 16 11
ROOT
ATOM      1  C   UNL     1      25.352   0.583  53.817  1.00  0.00    +0.311 A 
ATOM      2  C   UNL     1      24.055   0.112  53.568  1.00  0.00    +0.098 A 
ATOM      3  C   UNL     1      23.067   0.996  53.110  1.00  0.00    -0.011 A 
ATOM      4  C   UNL     1      23.422   2.345  52.917  1.00  0.00    +0.013 A 
ATOM      5  C   UNL     1      24.720   2.807  53.176  1.00  0.00    +0.054 A 
ATOM      6  C   UNL     1      25.692   1.922  53.632  1.00  0.00    +0.194 A 
ENDROOT
BRANCH   1   7
ATOM      7  N   UNL     1      26.342  -0.367  54.274  1.00  0.00    +0.066 N 
ATOM      8  O   UNL     1      26.592  -1.319  53.521  1.00  0.00    -0.258 OA
ATOM      9  O   UNL     1      26.909  -0.131  55.350  1.00  0.00    -0.258 OA
ENDBRANCH   1   7
BRANCH   6  10
ATOM     10  O   UNL     1      26.946   2.373  53.916  1.00  0.00    -0.502 OA
ATOM     11  H   UNL     1      26.931   2.907  54.730  1.00  0.00    +0.293 HD
ENDBRANCH   6  10
BRANCH   3  12
ATOM     12  C   UNL     1      21.699   0.527  52.840  1.00  0.00    -0.018 A 
ATOM     13  C   UNL     1      21.061   0.818  51.622  1.00  0.00    +0.009 A 
ATOM     14  C   UNL     1      20.988  -0.224  53.792  1.00  0.00    +0.009 A 
ATOM     15  C   UNL     1      19.761   0.373  51.365  1.00  0.00    +0.001 A 
ATOM     16  C   UNL     1      19.688  -0.668  53.537  1.00  0.00    +0.001 A 
ATOM     17  C   UNL     1      19.076  -0.369  52.322  1.00  0.00    +0.000 A 
ENDBRANCH   3  12
TORSDOF 3
ENDMDL
MODEL 7
REMARK VINA RESULT:    -6.646      1.647      2.217
REMARK INTER + INTRA:          -8.196
REMARK INTER:                  -7.581
REMARK INTRA:                  -0.615
REMARK UNBOUND:                -0.579
REMARK SMILES O=[N+]([O-])c1cc(-c2ccccc2)ccc1O
REMARK SMILES IDX 4 1 5 2 6 3 13 4 14 5 15 6 2 7 1 8 3 9 16 10 7 12 8 13 12 14
REMARK SMILES IDX 9 15 11 16 10 17
REMARK H PARENT 16 11
ROOT
ATOM      1  C   UNL     1      26.132   2.037  52.497  1.00  0.00    +0.311 A 
ATOM      2  C   UNL     1      25.124   1.255  53.077  1.00  0.00    +0.098 A 
ATOM      3  C   UNL     1      23.872   1.155  52.454  1.00  0.00    -0.011 A 
ATOM      4  C   UNL     1      23.673   1.860  51.251  1.00  0.00    +0.013 A 
ATOM      5  C   UNL     1      24.685   2.646  50.684  1.00  0.00    +0.054 A 
ATOM      6  C   UNL     1      25.924   2.739  51.312  1.00  0.00    +0.194 A 
ENDROOT
BRANCH   1   7
ATOM      7  N   UNL     1      27.413   2.099  53.168  1.00  0.00    +0.066 N 
ATOM      8  O   UNL     1      28.410   1.798  52.495  1.00  0.00    -0.258 OA
ATOM      9  O   UNL     1      27.429   2.503  54.338  1.00  0.00    -0.258 OA
ENDBRANCH   1   7
BRANCH   6  10
ATOM     10  O   UNL     1      26.900   3.528  50.781  1.00  0.00    -0.502 OA
ATOM     11  H   UNL     1      27.434   3.016  50.149  1.00  0.00    +0.293 HD
ENDBRANCH   6  10
BRANCH   3  12
ATOM     12  C   UNL     1      22.797   0.339  53.041  1.00  0.00    -0.018 A 
ATOM     13  C   UNL     1      21.455   0.538  52.675  1.00  0.00    +0.009 A 
ATOM     14  C   UNL     1      23.081  -0.663  53.984  1.00  0.00    +0.009 A 
ATOM     15  C   UNL     1      20.434  -0.236  53.232  1.00  0.00    +0.001 A 
ATOM     16  C   UNL     1      22.060  -1.437  54.543  1.00  0.00    +0.001 A 
ATOM     17  C   UNL     1      20.737  -1.223  54.166  1.00  0.00    +0.000 A 
ENDBRANCH   3  12
TORSDOF 3
ENDMDL
MODEL 8
REMARK VINA RESULT:    -6.628      4.092      6.117
REMARK INTER + INTRA:          -8.175
REMARK INTER:                  -7.582
REMARK INTRA:                  -0.594
REMARK UNBOUND:                -0.579
REMARK SMILES O=[N+]([O-])c1cc(-c2ccccc2)ccc1O
REMARK SMILES IDX 4 1 5 2 6 3 13 4 14 5 15 6 2 7 1 8 3 9 16 10 7 12 8 13 12 14
REMARK SMILES IDX 9 15 11 16 10 17
REMARK H PARENT 16 11
ROOT
ATOM      1  C   UNL     1      21.971   0.222  53.152  1.00  0.00    +0.311 A 
ATOM      2  C   UNL     1      23.370   0.247  53.065  1.00  0.00    +0.098 A 
ATOM      3  C   UNL     1      24.139  -0.492  53.976  1.00  0.00    -0.011 A 
ATOM      4  C   UNL     1      23.464  -1.241  54.958  1.00  0.00    +0.013 A 
ATOM      5  C   UNL     1      22.064  -1.253  55.041  1.00  0.00    +0.054 A 
ATOM      6  C   UNL     1      21.311  -0.514  54.134  1.00  0.00    +0.194 A 
ENDROOT
BRANCH   1   7
ATOM      7  N   UNL     1      21.217   0.989  52.183  1.00  0.00    +0.066 N 
ATOM      8  O   UNL     1      20.423   0.359  51.469  1.00  0.00    -0.258 OA
ATOM      9  O   UNL     1      21.373   2.218  52.178  1.00  0.00    -0.258 OA
ENDBRANCH   1   7
BRANCH   6  10
ATOM     10  O   UNL     1      19.952  -0.496  54.231  1.00  0.00    -0.502 OA
ATOM     11  H   UNL     1      19.659   0.330  54.654  1.00  0.00    +0.293 HD
ENDBRANCH   6  10
BRANCH   3  12
ATOM     12  C   UNL     1      25.609  -0.485  53.905  1.00  0.00    -0.018 A 
ATOM     13  C   UNL     1      26.290  -1.196  52.903  1.00  0.00    +0.009 A 
ATOM     14  C   UNL     1      26.375   0.234  54.839  1.00  0.00    +0.009 A 
ATOM     15  C   UNL     1      27.685  -1.189  52.836  1.00  0.00    +0.001 A 
ATOM     16  C   UNL     1      27.771   0.240  54.774  1.00  0.00    +0.001 A 
ATOM     17  C   UNL     1      28.425  -0.472  53.771  1.00  0.00    +0.000 A 
ENDBRANCH   3  12
TORSDOF 3
ENDMDL
MODEL 9
REMARK VINA RESULT:    -6.427      2.932      3.802
REMARK INTER + INTRA:          -7.944
REMARK INTER:                  -7.331
REMARK INTRA:                  -0.613
REMARK UNBOUND:                -0.579
REMARK SMILES O=[N+]([O-])c1cc(-c2ccccc2)ccc1O
REMARK SMILES IDX 4 1 5 2 6 3 13 4 14 5 15 6 2 7 1 8 3 9 16 10 7 12 8 13 12 14
REMARK SMILES IDX 9 15 11 16 10 17
REMARK H PARENT 16 11
ROOT
ATOM      1  C   UNL     1      24.929   2.967  51.444  1.00  0.00    +0.311 A 
ATOM      2  C   UNL     1      23.887   2.202  51.986  1.00  0.00    +0.098 A 
ATOM      3  C   UNL     1      24.169   0.971  52.598  1.00  0.00    -0.011 A 
ATOM      4  C   UNL     1      25.510   0.546  52.642  1.00  0.00    +0.013 A 
ATOM      5  C   UNL     1      26.544   1.315  52.090  1.00  0.00    +0.054 A 
ATOM      6  C   UNL     1      26.253   2.533  51.483  1.00  0.00    +0.194 A 
ENDROOT
BRANCH   1   7
ATOM      7  N   UNL     1      24.594   4.236  50.835  1.00  0.00    +0.066 N 
ATOM      8  O   UNL     1      24.902   4.381  49.643  1.00  0.00    -0.258 OA
ATOM      9  O   UNL     1      23.974   5.057  51.524  1.00  0.00    -0.258 OA
ENDBRANCH   1   7
BRANCH   6  10
ATOM     10  O   UNL     1      27.250   3.268  50.917  1.00  0.00    -0.502 OA
ATOM     11  H   UNL     1      27.839   2.689  50.402  1.00  0.00    +0.293 HD
ENDBRANCH   6  10
BRANCH   3  12
ATOM     12  C   UNL     1      23.094   0.150  53.176  1.00  0.00    -0.018 A 
ATOM     13  C   UNL     1      21.768   0.271  52.725  1.00  0.00    +0.009 A 
ATOM     14  C   UNL     1      23.360  -0.779  54.197  1.00  0.00    +0.009 A 
ATOM     15  C   UNL     1      20.747  -0.509  53.274  1.00  0.00    +0.001 A 
ATOM     16  C   UNL     1      22.339  -1.558  54.747  1.00  0.00    +0.001 A 
ATOM     17  C   UNL     1      21.032  -1.422  54.284  1.00  0.00    +0.000 A 
ENDBRANCH   3  12
TORSDOF 3
ENDMDL
