MODEL 1
REMARK VINA RESULT:    -9.899      0.000      0.000
REMARK INTER + INTRA:         -12.421
REMARK INTER:                 -11.635
REMARK INTRA:                  -0.786
REMARK UNBOUND:                -0.786
REMARK SMILES Cc1cccc(C=C2C(=O)N(C)c3ncnc(-c4cc(C)c(N5CCOCC5)[nH]4)c32)c1
REMARK SMILES IDX 7 1 8 2 9 3 10 4 11 5 12 6 13 7 14 8 15 9 16 10 17 11 30 12
REMARK SMILES IDX 6 13 2 14 3 15 31 16 4 17 5 18 1 19 18 20 19 21 29 22 20 23
REMARK SMILES IDX 22 24 21 26 23 27 24 28 28 29 25 30 27 31 26 32
REMARK H PARENT 29 25
ROOT
ATOM      1  C   UNL     1      26.120   1.254  52.082  1.00  0.00    +0.022 C 
ATOM      2  C   UNL     1      24.811   1.077  52.321  1.00  0.00    +0.054 C 
ATOM      3  C   UNL     1      24.215   0.144  53.347  1.00  0.00    +0.260 C 
ATOM      4  O   UNL     1      24.792  -0.480  54.216  1.00  0.00    -0.269 OA
ATOM      5  N   UNL     1      22.857   0.146  53.071  1.00  0.00    -0.295 N 
ATOM      6  C   UNL     1      21.859  -0.607  53.778  1.00  0.00    +0.155 C 
ATOM      7  C   UNL     1      22.544   1.026  52.031  1.00  0.00    +0.147 A 
ATOM      8  N   UNL     1      21.301   1.221  51.574  1.00  0.00    -0.218 NA
ATOM      9  C   UNL     1      21.224   2.120  50.589  1.00  0.00    +0.225 A 
ATOM     10  N   UNL     1      22.248   2.823  50.073  1.00  0.00    -0.234 NA
ATOM     11  C   UNL     1      23.476   2.607  50.609  1.00  0.00    +0.100 A 
ATOM     12  C   UNL     1      23.689   1.658  51.575  1.00  0.00    +0.058 A 
ENDROOT
BRANCH   1  13
ATOM     13  C   UNL     1      27.234   0.629  52.802  1.00  0.00    -0.025 A 
ATOM     14  C   UNL     1      28.630  -1.303  53.299  1.00  0.00    -0.051 A 
ATOM     15  C   UNL     1      29.414  -0.505  54.141  1.00  0.00    +0.003 A 
ATOM     16  C   UNL     1      27.535  -0.728  52.638  1.00  0.00    +0.011 A 
ATOM     17  C   UNL     1      29.124   0.850  54.300  1.00  0.00    +0.001 A 
ATOM     18  C   UNL     1      28.041   1.417  53.629  1.00  0.00    +0.008 A 
ATOM     19  C   UNL     1      28.913  -2.769  53.160  1.00  0.00    +0.044 C 
ENDBRANCH   1  13
BRANCH  11  20
ATOM     20  C   UNL     1      24.480   3.517  50.076  1.00  0.00    +0.067 A 
ATOM     21  C   UNL     1      25.762   3.312  49.606  1.00  0.00    +0.035 A 
ATOM     22  N   UNL     1      24.288   4.878  50.064  1.00  0.00    -0.340 N 
ATOM     23  C   UNL     1      26.313   4.570  49.217  1.00  0.00    -0.008 A 
ATOM     24  C   UNL     1      25.359   5.535  49.509  1.00  0.00    +0.109 A 
ATOM     25  H   UNL     1      23.444   5.322  50.390  1.00  0.00    +0.168 HD
ATOM     26  C   UNL     1      27.676   4.752  48.651  1.00  0.00    +0.048 C 
BRANCH  24  27
ATOM     27  N   UNL     1      25.317   6.886  49.344  1.00  0.00    -0.353 N 
ATOM     28  C   UNL     1      26.024   7.815  50.242  1.00  0.00    +0.146 C 
ATOM     29  C   UNL     1      24.689   7.505  48.169  1.00  0.00    +0.146 C 
ATOM     30  C   UNL     1      26.471   9.068  49.472  1.00  0.00    +0.181 C 
ATOM     31  C   UNL     1      24.290   8.957  48.487  1.00  0.00    +0.181 C 
ATOM     32  O   UNL     1      25.391   9.796  48.871  1.00  0.00    -0.378 OA
ENDBRANCH  24  27
ENDBRANCH  11  20
TORSDOF 3
ENDMDL
MODEL 2
REMARK VINA RESULT:    -9.549      1.161      1.543
REMARK INTER + INTRA:         -12.009
REMARK INTER:                 -11.405
REMARK INTRA:                  -0.604
REMARK UNBOUND:                -0.786
REMARK SMILES Cc1cccc(C=C2C(=O)N(C)c3ncnc(-c4cc(C)c(N5CCOCC5)[nH]4)c32)c1
REMARK SMILES IDX 7 1 8 2 9 3 10 4 11 5 12 6 13 7 14 8 15 9 16 10 17 11 30 12
REMARK SMILES IDX 6 13 2 14 3 15 31 16 4 17 5 18 1 19 18 20 19 21 29 22 20 23
REMARK SMILES IDX 22 24 21 26 23 27 24 28 28 29 25 30 27 31 26 32
REMARK H PARENT 29 25
ROOT
ATOM      1  C   UNL     1      25.790   0.920  52.428  1.00  0.00    +0.022 C 
ATOM      2  C   UNL     1      24.555   0.582  52.830  1.00  0.00    +0.054 C 
ATOM      3  C   UNL     1      24.217  -0.410  53.917  1.00  0.00    +0.260 C 
ATOM      4  O   UNL     1      24.974  -0.946  54.702  1.00  0.00    -0.269 OA
ATOM      5  N   UNL     1      22.846  -0.582  53.815  1.00  0.00    -0.295 N 
ATOM      6  C   UNL     1      22.049  -1.448  54.638  1.00  0.00    +0.155 C 
ATOM      7  C   UNL     1      22.295   0.240  52.829  1.00  0.00    +0.147 A 
ATOM      8  N   UNL     1      20.989   0.272  52.534  1.00  0.00    -0.218 NA
ATOM      9  C   UNL     1      20.674   1.144  51.572  1.00  0.00    +0.225 A 
ATOM     10  N   UNL     1      21.528   1.966  50.935  1.00  0.00    -0.234 NA
ATOM     11  C   UNL     1      22.831   1.913  51.310  1.00  0.00    +0.100 A 
ATOM     12  C   UNL     1      23.284   1.008  52.235  1.00  0.00    +0.058 A 
ENDROOT
BRANCH   1  13
ATOM     13  C   UNL     1      27.057   0.449  52.998  1.00  0.00    -0.025 A 
ATOM     14  C   UNL     1      28.720  -1.297  53.331  1.00  0.00    -0.051 A 
ATOM     15  C   UNL     1      29.515  -0.388  54.041  1.00  0.00    +0.003 A 
ATOM     16  C   UNL     1      27.487  -0.872  52.819  1.00  0.00    +0.011 A 
ATOM     17  C   UNL     1      29.095   0.931  54.213  1.00  0.00    +0.001 A 
ATOM     18  C   UNL     1      27.873   1.350  53.689  1.00  0.00    +0.008 A 
ATOM     19  C   UNL     1      29.148  -2.727  53.182  1.00  0.00    +0.044 C 
ENDBRANCH   1  13
BRANCH  11  20
ATOM     20  C   UNL     1      23.636   2.937  50.660  1.00  0.00    +0.067 A 
ATOM     21  C   UNL     1      24.932   2.936  50.184  1.00  0.00    +0.035 A 
ATOM     22  N   UNL     1      23.181   4.225  50.508  1.00  0.00    -0.340 N 
ATOM     23  C   UNL     1      25.225   4.227  49.651  1.00  0.00    -0.008 A 
ATOM     24  C   UNL     1      24.101   5.014  49.861  1.00  0.00    +0.109 A 
ATOM     25  H   UNL     1      22.267   4.530  50.805  1.00  0.00    +0.168 HD
ATOM     26  C   UNL     1      26.524   4.608  49.036  1.00  0.00    +0.048 C 
BRANCH  24  27
ATOM     27  N   UNL     1      23.795   6.305  49.554  1.00  0.00    -0.353 N 
ATOM     28  C   UNL     1      22.702   6.660  48.633  1.00  0.00    +0.146 C 
ATOM     29  C   UNL     1      24.434   7.438  50.237  1.00  0.00    +0.146 C 
ATOM     30  C   UNL     1      22.076   8.004  49.039  1.00  0.00    +0.181 C 
ATOM     31  C   UNL     1      24.346   8.700  49.361  1.00  0.00    +0.181 C 
ATOM     32  O   UNL     1      23.003   9.099  49.043  1.00  0.00    -0.378 OA
ENDBRANCH  24  27
ENDBRANCH  11  20
TORSDOF 3
ENDMDL
MODEL 3
REMARK VINA RESULT:    -9.459      2.292      3.036
REMARK INTER + INTRA:         -11.904
REMARK INTER:                 -11.531
REMARK INTRA:                  -0.373
REMARK UNBOUND:                -0.786
REMARK SMILES Cc1cccc(C=C2C(=O)N(C)c3ncnc(-c4cc(C)c(N5CCOCC5)[nH]4)c32)c1
REMARK SMILES IDX 7 1 8 2 9 3 10 4 11 5 12 6 13 7 14 8 15 9 16 10 17 11 30 12
REMARK SMILES IDX 6 13 2 14 3 15 31 16 4 17 5 18 1 19 18 20 19 21 29 22 20 23
REMARK SMILES IDX 22 24 21 26 23 27 24 28 28 29 25 30 27 31 26 32
REMARK H PARENT 29 25
ROOT
ATOM      1  C   UNL     1      25.531   0.700  52.378  1.00  0.00    +0.022 C 
ATOM      2  C   UNL     1      24.409   0.279  52.984  1.00  0.00    +0.054 C 
ATOM      3  C   UNL     1      24.340  -0.546  54.247  1.00  0.00    +0.260 C 
ATOM      4  O   UNL     1      25.247  -0.837  55.001  1.00  0.00    -0.269 OA
ATOM      5  N   UNL     1      23.007  -0.909  54.351  1.00  0.00    -0.295 N 
ATOM      6  C   UNL     1      22.440  -1.717  55.395  1.00  0.00    +0.155 C 
ATOM      7  C   UNL     1      22.238  -0.347  53.329  1.00  0.00    +0.147 A 
ATOM      8  N   UNL     1      20.918  -0.535  53.204  1.00  0.00    -0.218 NA
ATOM      9  C   UNL     1      20.376   0.110  52.167  1.00  0.00    +0.225 A 
ATOM     10  N   UNL     1      21.025   0.914  51.305  1.00  0.00    -0.234 NA
ATOM     11  C   UNL     1      22.354   1.095  51.512  1.00  0.00    +0.100 A 
ATOM     12  C   UNL     1      23.033   0.429  52.501  1.00  0.00    +0.058 A 
ENDROOT
BRANCH   1  13
ATOM     13  C   UNL     1      26.906   0.502  52.845  1.00  0.00    -0.025 A 
ATOM     14  C   UNL     1      28.823  -0.940  53.266  1.00  0.00    -0.051 A 
ATOM     15  C   UNL     1      29.559   0.179  53.676  1.00  0.00    +0.003 A 
ATOM     16  C   UNL     1      27.493  -0.770  52.858  1.00  0.00    +0.011 A 
ATOM     17  C   UNL     1      28.982   1.449  53.656  1.00  0.00    +0.001 A 
ATOM     18  C   UNL     1      27.662   1.611  53.237  1.00  0.00    +0.008 A 
ATOM     19  C   UNL     1      29.426  -2.311  53.328  1.00  0.00    +0.044 C 
ENDBRANCH   1  13
BRANCH  11  20
ATOM     20  C   UNL     1      22.924   2.088  50.613  1.00  0.00    +0.067 A 
ATOM     21  C   UNL     1      24.126   2.767  50.622  1.00  0.00    +0.035 A 
ATOM     22  N   UNL     1      22.205   2.610  49.565  1.00  0.00    -0.340 N 
ATOM     23  C   UNL     1      24.162   3.647  49.498  1.00  0.00    -0.008 A 
ATOM     24  C   UNL     1      22.943   3.520  48.848  1.00  0.00    +0.109 A 
ATOM     25  H   UNL     1      21.265   2.323  49.339  1.00  0.00    +0.168 HD
ATOM     26  C   UNL     1      25.305   4.539  49.166  1.00  0.00    +0.048 C 
BRANCH  24  27
ATOM     27  N   UNL     1      22.421   4.087  47.726  1.00  0.00    -0.353 N 
ATOM     28  C   UNL     1      22.245   5.543  47.584  1.00  0.00    +0.146 C 
ATOM     29  C   UNL     1      22.137   3.301  46.518  1.00  0.00    +0.146 C 
ATOM     30  C   UNL     1      22.408   5.962  46.114  1.00  0.00    +0.181 C 
ATOM     31  C   UNL     1      21.084   4.019  45.655  1.00  0.00    +0.181 C 
ATOM     32  O   UNL     1      21.476   5.331  45.224  1.00  0.00    -0.378 OA
ENDBRANCH  24  27
ENDBRANCH  11  20
TORSDOF 3
ENDMDL
MODEL 4
REMARK VINA RESULT:    -9.181      1.561      2.583
REMARK INTER + INTRA:         -11.577
REMARK INTER:                 -10.745
REMARK INTRA:                  -0.832
REMARK UNBOUND:                -0.786
REMARK SMILES Cc1cccc(C=C2C(=O)N(C)c3ncnc(-c4cc(C)c(N5CCOCC5)[nH]4)c32)c1
REMARK SMILES IDX 7 1 8 2 9 3 10 4 11 5 12 6 13 7 14 8 15 9 16 10 17 11 30 12
REMARK SMILES IDX 6 13 2 14 3 15 31 16 4 17 5 18 1 19 18 20 19 21 29 22 20 23
REMARK SMILES IDX 22 24 21 26 23 27 24 28 28 29 25 30 27 31 26 32
REMARK H PARENT 29 25
ROOT
ATOM      1  C   UNL     1      25.237   0.651  52.481  1.00  0.00    +0.022 C 
ATOM      2  C   UNL     1      24.206   0.144  53.176  1.00  0.00    +0.054 C 
ATOM      3  C   UNL     1      24.303  -0.622  54.474  1.00  0.00    +0.260 C 
ATOM      4  O   UNL     1      25.281  -0.779  55.178  1.00  0.00    -0.269 OA
ATOM      5  N   UNL     1      23.027  -1.118  54.679  1.00  0.00    -0.295 N 
ATOM      6  C   UNL     1      22.614  -1.930  55.790  1.00  0.00    +0.155 C 
ATOM      7  C   UNL     1      22.141  -0.691  53.686  1.00  0.00    +0.147 A 
ATOM      8  N   UNL     1      20.844  -1.023  53.656  1.00  0.00    -0.218 NA
ATOM      9  C   UNL     1      20.174  -0.489  52.631  1.00  0.00    +0.225 A 
ATOM     10  N   UNL     1      20.679   0.336  51.696  1.00  0.00    -0.234 NA
ATOM     11  C   UNL     1      21.990   0.666  51.808  1.00  0.00    +0.100 A 
ATOM     12  C   UNL     1      22.795   0.124  52.777  1.00  0.00    +0.058 A 
ENDROOT
BRANCH   1  13
ATOM     13  C   UNL     1      26.652   0.622  52.866  1.00  0.00    -0.025 A 
ATOM     14  C   UNL     1      28.743  -0.581  53.192  1.00  0.00    -0.051 A 
ATOM     15  C   UNL     1      29.369   0.623  53.537  1.00  0.00    +0.003 A 
ATOM     16  C   UNL     1      27.380  -0.574  52.865  1.00  0.00    +0.011 A 
ATOM     17  C   UNL     1      28.650   1.819  53.530  1.00  0.00    +0.001 A 
ATOM     18  C   UNL     1      27.297   1.820  53.190  1.00  0.00    +0.008 A 
ATOM     19  C   UNL     1      29.502  -1.873  53.241  1.00  0.00    +0.044 C 
ENDBRANCH   1  13
BRANCH  11  20
ATOM     20  C   UNL     1      22.394   1.670  50.833  1.00  0.00    +0.067 A 
ATOM     21  C   UNL     1      22.256   1.737  49.461  1.00  0.00    +0.035 A 
ATOM     22  N   UNL     1      23.142   2.765  51.191  1.00  0.00    -0.340 N 
ATOM     23  C   UNL     1      22.855   2.949  49.001  1.00  0.00    -0.008 A 
ATOM     24  C   UNL     1      23.397   3.578  50.113  1.00  0.00    +0.109 A 
ATOM     25  H   UNL     1      23.430   2.956  52.138  1.00  0.00    +0.168 HD
ATOM     26  C   UNL     1      22.896   3.378  47.578  1.00  0.00    +0.048 C 
BRANCH  24  27
ATOM     27  N   UNL     1      24.062   4.752  50.288  1.00  0.00    -0.353 N 
ATOM     28  C   UNL     1      25.512   4.882  50.061  1.00  0.00    +0.146 C 
ATOM     29  C   UNL     1      23.357   6.010  50.571  1.00  0.00    +0.146 C 
ATOM     30  C   UNL     1      25.852   6.296  49.565  1.00  0.00    +0.181 C 
ATOM     31  C   UNL     1      24.309   7.007  51.255  1.00  0.00    +0.181 C 
ATOM     32  O   UNL     1      25.470   7.338  50.476  1.00  0.00    -0.378 OA
ENDBRANCH  24  27
ENDBRANCH  11  20
TORSDOF 3
ENDMDL
MODEL 5
REMARK VINA RESULT:    -8.863      2.340      6.610
REMARK INTER + INTRA:         -11.203
REMARK INTER:                 -10.817
REMARK INTRA:                  -0.386
REMARK UNBOUND:                -0.786
REMARK SMILES Cc1cccc(C=C2C(=O)N(C)c3ncnc(-c4cc(C)c(N5CCOCC5)[nH]4)c32)c1
REMARK SMILES IDX 7 1 8 2 9 3 10 4 11 5 12 6 13 7 14 8 15 9 16 10 17 11 30 12
REMARK SMILES IDX 6 13 2 14 3 15 31 16 4 17 5 18 1 19 18 20 19 21 29 22 20 23
REMARK SMILES IDX 22 24 21 26 23 27 24 28 28 29 25 30 27 31 26 32
REMARK H PARENT 29 25
ROOT
ATOM      1  C   UNL     1      24.582   1.788  51.782  1.00  0.00    +0.022 C 
ATOM      2  C   UNL     1      24.829   2.696  50.824  1.00  0.00    +0.054 C 
ATOM      3  C   UNL     1      26.186   3.235  50.442  1.00  0.00    +0.260 C 
ATOM      4  O   UNL     1      27.276   2.847  50.813  1.00  0.00    -0.269 OA
ATOM      5  N   UNL     1      25.912   4.284  49.579  1.00  0.00    -0.295 N 
ATOM      6  C   UNL     1      26.891   5.125  48.950  1.00  0.00    +0.155 C 
ATOM      7  C   UNL     1      24.541   4.409  49.338  1.00  0.00    +0.147 A 
ATOM      8  N   UNL     1      24.011   5.339  48.534  1.00  0.00    -0.218 NA
ATOM      9  C   UNL     1      22.681   5.267  48.429  1.00  0.00    +0.225 A 
ATOM     10  N   UNL     1      21.886   4.357  49.021  1.00  0.00    -0.234 NA
ATOM     11  C   UNL     1      22.491   3.417  49.790  1.00  0.00    +0.100 A 
ATOM     12  C   UNL     1      23.841   3.433  50.029  1.00  0.00    +0.058 A 
ENDROOT
BRANCH   1  13
ATOM     13  C   UNL     1      25.575   1.092  52.607  1.00  0.00    -0.025 A 
ATOM     14  C   UNL     1      27.019  -0.820  53.037  1.00  0.00    -0.051 A 
ATOM     15  C   UNL     1      27.525  -0.169  54.169  1.00  0.00    +0.003 A 
ATOM     16  C   UNL     1      26.037  -0.185  52.265  1.00  0.00    +0.011 A 
ATOM     17  C   UNL     1      27.076   1.108  54.508  1.00  0.00    +0.001 A 
ATOM     18  C   UNL     1      26.108   1.739  53.727  1.00  0.00    +0.008 A 
ATOM     19  C   UNL     1      27.468  -2.210  52.696  1.00  0.00    +0.044 C 
ENDBRANCH   1  13
BRANCH  11  20
ATOM     20  C   UNL     1      21.557   2.406  50.264  1.00  0.00    +0.067 A 
ATOM     21  C   UNL     1      20.283   2.058  49.861  1.00  0.00    +0.035 A 
ATOM     22  N   UNL     1      21.822   1.641  51.374  1.00  0.00    -0.340 N 
ATOM     23  C   UNL     1      19.814   0.996  50.693  1.00  0.00    -0.008 A 
ATOM     24  C   UNL     1      20.808   0.750  51.629  1.00  0.00    +0.109 A 
ATOM     25  H   UNL     1      22.677   1.709  51.904  1.00  0.00    +0.168 HD
ATOM     26  C   UNL     1      18.484   0.347  50.556  1.00  0.00    +0.048 C 
BRANCH  24  27
ATOM     27  N   UNL     1      20.928  -0.145  52.648  1.00  0.00    -0.353 N 
ATOM     28  C   UNL     1      22.215  -0.769  53.005  1.00  0.00    +0.146 C 
ATOM     29  C   UNL     1      19.815  -0.438  53.561  1.00  0.00    +0.146 C 
ATOM     30  C   UNL     1      22.270  -1.056  54.514  1.00  0.00    +0.181 C 
ATOM     31  C   UNL     1      20.017  -1.815  54.217  1.00  0.00    +0.181 C 
ATOM     32  O   UNL     1      21.230  -1.930  54.977  1.00  0.00    -0.378 OA
ENDBRANCH  24  27
ENDBRANCH  11  20
TORSDOF 3
ENDMDL
MODEL 6
REMARK VINA RESULT:    -8.825      1.980      2.929
REMARK INTER + INTRA:         -11.159
REMARK INTER:                 -10.522
REMARK INTRA:                  -0.637
REMARK UNBOUND:                -0.786
REMARK SMILES Cc1cccc(C=C2C(=O)N(C)c3ncnc(-c4cc(C)c(N5CCOCC5)[nH]4)c32)c1
REMARK SMILES IDX 7 1 8 2 9 3 10 4 11 5 12 6 13 7 14 8 15 9 16 10 17 11 30 12
REMARK SMILES IDX 6 13 2 14 3 15 31 16 4 17 5 18 1 19 18 20 19 21 29 22 20 23
REMARK SMILES IDX 22 24 21 26 23 27 24 28 28 29 25 30 27 31 26 32
REMARK H PARENT 29 25
ROOT
ATOM      1  C   UNL     1      23.998   1.425  52.562  1.00  0.00    +0.022 C 
ATOM      2  C   UNL     1      22.755   0.997  52.830  1.00  0.00    +0.054 C 
ATOM      3  C   UNL     1      22.393  -0.237  53.623  1.00  0.00    +0.260 C 
ATOM      4  O   UNL     1      23.131  -0.954  54.268  1.00  0.00    -0.269 OA
ATOM      5  N   UNL     1      21.027  -0.377  53.442  1.00  0.00    -0.295 N 
ATOM      6  C   UNL     1      20.213  -1.422  53.996  1.00  0.00    +0.155 C 
ATOM      7  C   UNL     1      20.498   0.668  52.679  1.00  0.00    +0.147 A 
ATOM      8  N   UNL     1      19.200   0.774  52.365  1.00  0.00    -0.218 NA
ATOM      9  C   UNL     1      18.907   1.861  51.645  1.00  0.00    +0.225 A 
ATOM     10  N   UNL     1      19.772   2.817  51.261  1.00  0.00    -0.234 NA
ATOM     11  C   UNL     1      21.065   2.670  51.647  1.00  0.00    +0.100 A 
ATOM     12  C   UNL     1      21.497   1.560  52.327  1.00  0.00    +0.058 A 
ENDROOT
BRANCH   1  13
ATOM     13  C   UNL     1      25.252   0.824  53.030  1.00  0.00    -0.025 A 
ATOM     14  C   UNL     1      26.910  -0.958  52.969  1.00  0.00    -0.051 A 
ATOM     15  C   UNL     1      27.686  -0.251  53.897  1.00  0.00    +0.003 A 
ATOM     16  C   UNL     1      25.688  -0.415  52.546  1.00  0.00    +0.011 A 
ATOM     17  C   UNL     1      27.260   0.989  54.374  1.00  0.00    +0.001 A 
ATOM     18  C   UNL     1      26.049   1.528  53.938  1.00  0.00    +0.008 A 
ATOM     19  C   UNL     1      27.344  -2.310  52.488  1.00  0.00    +0.044 C 
ENDBRANCH   1  13
BRANCH  11  20
ATOM     20  C   UNL     1      21.880   3.825  51.300  1.00  0.00    +0.067 A 
ATOM     21  C   UNL     1      21.654   5.183  51.396  1.00  0.00    +0.035 A 
ATOM     22  N   UNL     1      23.090   3.689  50.662  1.00  0.00    -0.340 N 
ATOM     23  C   UNL     1      22.796   5.874  50.889  1.00  0.00    -0.008 A 
ATOM     24  C   UNL     1      23.686   4.907  50.443  1.00  0.00    +0.109 A 
ATOM     25  H   UNL     1      23.496   2.797  50.425  1.00  0.00    +0.168 HD
ATOM     26  C   UNL     1      22.928   7.354  50.837  1.00  0.00    +0.048 C 
BRANCH  24  27
ATOM     27  N   UNL     1      24.928   4.967  49.888  1.00  0.00    -0.353 N 
ATOM     28  C   UNL     1      26.023   4.071  50.301  1.00  0.00    +0.146 C 
ATOM     29  C   UNL     1      25.223   5.827  48.734  1.00  0.00    +0.146 C 
ATOM     30  C   UNL     1      26.956   3.786  49.114  1.00  0.00    +0.181 C 
ATOM     31  C   UNL     1      26.730   6.130  48.672  1.00  0.00    +0.181 C 
ATOM     32  O   UNL     1      27.557   4.962  48.553  1.00  0.00    -0.378 OA
ENDBRANCH  24  27
ENDBRANCH  11  20
TORSDOF 3
ENDMDL
MODEL 7
REMARK VINA RESULT:    -8.723      2.953      7.610
REMARK INTER + INTRA:         -11.038
REMARK INTER:                 -10.933
REMARK INTRA:                  -0.105
REMARK UNBOUND:                -0.786
REMARK SMILES Cc1cccc(C=C2C(=O)N(C)c3ncnc(-c4cc(C)c(N5CCOCC5)[nH]4)c32)c1
REMARK SMILES IDX 7 1 8 2 9 3 10 4 11 5 12 6 13 7 14 8 15 9 16 10 17 11 30 12
REMARK SMILES IDX 6 13 2 14 3 15 31 16 4 17 5 18 1 19 18 20 19 21 29 22 20 23
REMARK SMILES IDX 22 24 21 26 23 27 24 28 28 29 25 30 27 31 26 32
REMARK H PARENT 29 25
ROOT
ATOM      1  C   UNL     1      24.760   2.451  51.439  1.00  0.00    +0.022 C 
ATOM      2  C   UNL     1      25.343   1.749  52.423  1.00  0.00    +0.054 C 
ATOM      3  C   UNL     1      26.807   1.786  52.792  1.00  0.00    +0.260 C 
ATOM      4  O   UNL     1      27.663   2.544  52.380  1.00  0.00    -0.269 OA
ATOM      5  N   UNL     1      26.962   0.751  53.700  1.00  0.00    -0.295 N 
ATOM      6  C   UNL     1      28.194   0.375  54.336  1.00  0.00    +0.155 C 
ATOM      7  C   UNL     1      25.745   0.123  53.979  1.00  0.00    +0.147 A 
ATOM      8  N   UNL     1      25.618  -0.903  54.830  1.00  0.00    -0.218 NA
ATOM      9  C   UNL     1      24.363  -1.340  54.964  1.00  0.00    +0.225 A 
ATOM     10  N   UNL     1      23.275  -0.830  54.359  1.00  0.00    -0.234 NA
ATOM     11  C   UNL     1      23.468   0.236  53.540  1.00  0.00    +0.100 A 
ATOM     12  C   UNL     1      24.719   0.726  53.269  1.00  0.00    +0.058 A 
ENDROOT
BRANCH   1  13
ATOM     13  C   UNL     1      25.405   3.436  50.564  1.00  0.00    -0.025 A 
ATOM     14  C   UNL     1      25.647   5.715  49.744  1.00  0.00    -0.051 A 
ATOM     15  C   UNL     1      26.711   5.298  48.934  1.00  0.00    +0.003 A 
ATOM     16  C   UNL     1      24.993   4.775  50.551  1.00  0.00    +0.011 A 
ATOM     17  C   UNL     1      27.131   3.968  48.952  1.00  0.00    +0.001 A 
ATOM     18  C   UNL     1      26.484   3.040  49.768  1.00  0.00    +0.008 A 
ATOM     19  C   UNL     1      25.165   7.135  49.694  1.00  0.00    +0.044 C 
ENDBRANCH   1  13
BRANCH  11  20
ATOM     20  C   UNL     1      22.214   0.792  53.052  1.00  0.00    +0.067 A 
ATOM     21  C   UNL     1      21.818   2.086  52.777  1.00  0.00    +0.035 A 
ATOM     22  N   UNL     1      21.098   0.011  52.875  1.00  0.00    -0.340 N 
ATOM     23  C   UNL     1      20.460   2.064  52.336  1.00  0.00    -0.008 A 
ATOM     24  C   UNL     1      20.037   0.744  52.400  1.00  0.00    +0.109 A 
ATOM     25  H   UNL     1      21.084  -0.983  53.040  1.00  0.00    +0.168 HD
ATOM     26  C   UNL     1      19.687   3.270  51.937  1.00  0.00    +0.048 C 
BRANCH  24  27
ATOM     27  N   UNL     1      18.865   0.124  52.091  1.00  0.00    -0.353 N 
ATOM     28  C   UNL     1      18.302  -0.959  52.917  1.00  0.00    +0.146 C 
ATOM     29  C   UNL     1      18.002   0.592  50.998  1.00  0.00    +0.146 C 
ATOM     30  C   UNL     1      16.766  -0.932  52.859  1.00  0.00    +0.181 C 
ATOM     31  C   UNL     1      17.092  -0.551  50.516  1.00  0.00    +0.181 C 
ATOM     32  O   UNL     1      16.232  -1.084  51.536  1.00  0.00    -0.378 OA
ENDBRANCH  24  27
ENDBRANCH  11  20
TORSDOF 3
ENDMDL
MODEL 8
REMARK VINA RESULT:    -8.565      2.074      3.095
REMARK INTER + INTRA:         -10.853
REMARK INTER:                  -9.783
REMARK INTRA:                  -1.069
REMARK UNBOUND:                -0.786
REMARK SMILES Cc1cccc(C=C2C(=O)N(C)c3ncnc(-c4cc(C)c(N5CCOCC5)[nH]4)c32)c1
REMARK SMILES IDX 7 1 8 2 9 3 10 4 11 5 12 6 13 7 14 8 15 9 16 10 17 11 30 12
REMARK SMILES IDX 6 13 2 14 3 15 31 16 4 17 5 18 1 19 18 20 19 21 29 22 20 23
REMARK SMILES IDX 22 24 21 26 23 27 24 28 28 29 25 30 27 31 26 32
REMARK H PARENT 29 25
ROOT
ATOM      1  C   UNL     1      23.577   1.213  51.832  1.00  0.00    +0.022 C 
ATOM      2  C   UNL     1      22.421   0.685  52.266  1.00  0.00    +0.054 C 
ATOM      3  C   UNL     1      22.249  -0.204  53.474  1.00  0.00    +0.260 C 
ATOM      4  O   UNL     1      23.070  -0.468  54.331  1.00  0.00    -0.269 OA
ATOM      5  N   UNL     1      20.946  -0.663  53.384  1.00  0.00    -0.295 N 
ATOM      6  C   UNL     1      20.309  -1.559  54.310  1.00  0.00    +0.155 C 
ATOM      7  C   UNL     1      20.276  -0.107  52.291  1.00  0.00    +0.147 A 
ATOM      8  N   UNL     1      19.002  -0.380  51.983  1.00  0.00    -0.218 NA
ATOM      9  C   UNL     1      18.554   0.277  50.909  1.00  0.00    +0.225 A 
ATOM     10  N   UNL     1      19.247   1.165  50.175  1.00  0.00    -0.234 NA
ATOM     11  C   UNL     1      20.520   1.427  50.565  1.00  0.00    +0.100 A 
ATOM     12  C   UNL     1      21.112   0.762  51.608  1.00  0.00    +0.058 A 
ENDROOT
BRANCH   1  13
ATOM     13  C   UNL     1      24.891   1.088  52.472  1.00  0.00    -0.025 A 
ATOM     14  C   UNL     1      26.942  -0.154  52.893  1.00  0.00    -0.051 A 
ATOM     15  C   UNL     1      27.424   0.921  53.650  1.00  0.00    +0.003 A 
ATOM     16  C   UNL     1      25.669  -0.065  52.313  1.00  0.00    +0.011 A 
ATOM     17  C   UNL     1      26.656   2.076  53.803  1.00  0.00    +0.001 A 
ATOM     18  C   UNL     1      25.395   2.162  53.211  1.00  0.00    +0.008 A 
ATOM     19  C   UNL     1      27.746  -1.414  52.763  1.00  0.00    +0.044 C 
ENDBRANCH   1  13
BRANCH  11  20
ATOM     20  C   UNL     1      21.126   2.501  49.789  1.00  0.00    +0.067 A 
ATOM     21  C   UNL     1      21.318   2.671  48.433  1.00  0.00    +0.035 A 
ATOM     22  N   UNL     1      21.748   3.566  50.394  1.00  0.00    -0.340 N 
ATOM     23  C   UNL     1      21.987   3.913  48.218  1.00  0.00    -0.008 A 
ATOM     24  C   UNL     1      22.237   4.458  49.469  1.00  0.00    +0.109 A 
ATOM     25  H   UNL     1      21.798   3.686  51.393  1.00  0.00    +0.168 HD
ATOM     26  C   UNL     1      22.358   4.447  46.881  1.00  0.00    +0.048 C 
BRANCH  24  27
ATOM     27  N   UNL     1      22.820   5.616  49.884  1.00  0.00    -0.353 N 
ATOM     28  C   UNL     1      22.319   6.942  49.481  1.00  0.00    +0.146 C 
ATOM     29  C   UNL     1      23.897   5.630  50.883  1.00  0.00    +0.146 C 
ATOM     30  C   UNL     1      22.574   7.971  50.594  1.00  0.00    +0.181 C 
ATOM     31  C   UNL     1      24.722   6.922  50.754  1.00  0.00    +0.181 C 
ATOM     32  O   UNL     1      23.958   8.125  50.937  1.00  0.00    -0.378 OA
ENDBRANCH  24  27
ENDBRANCH  11  20
TORSDOF 3
ENDMDL
MODEL 9
REMARK VINA RESULT:    -8.527      2.182      5.765
REMARK INTER + INTRA:         -10.808
REMARK INTER:                  -9.763
REMARK INTRA:                  -1.044
REMARK UNBOUND:                -0.786
REMARK SMILES Cc1cccc(C=C2C(=O)N(C)c3ncnc(-c4cc(C)c(N5CCOCC5)[nH]4)c32)c1
REMARK SMILES IDX 7 1 8 2 9 3 10 4 11 5 12 6 13 7 14 8 15 9 16 10 17 11 30 12
REMARK SMILES IDX 6 13 2 14 3 15 31 16 4 17 5 18 1 19 18 20 19 21 29 22 20 23
REMARK SMILES IDX 22 24 21 26 23 27 24 28 28 29 25 30 27 31 26 32
REMARK H PARENT 29 25
ROOT
ATOM      1  C   UNL     1      22.008   2.415  51.019  1.00  0.00    +0.022 C 
ATOM      2  C   UNL     1      22.418   1.385  51.776  1.00  0.00    +0.054 C 
ATOM      3  C   UNL     1      21.551   0.256  52.282  1.00  0.00    +0.260 C 
ATOM      4  O   UNL     1      20.402   0.003  51.980  1.00  0.00    -0.269 OA
ATOM      5  N   UNL     1      22.358  -0.424  53.180  1.00  0.00    -0.295 N 
ATOM      6  C   UNL     1      21.973  -1.581  53.938  1.00  0.00    +0.155 C 
ATOM      7  C   UNL     1      23.643   0.122  53.235  1.00  0.00    +0.147 A 
ATOM      8  N   UNL     1      24.618  -0.355  54.019  1.00  0.00    -0.218 NA
ATOM      9  C   UNL     1      25.775   0.304  53.901  1.00  0.00    +0.225 A 
ATOM     10  N   UNL     1      26.021   1.336  53.074  1.00  0.00    -0.234 NA
ATOM     11  C   UNL     1      25.001   1.743  52.277  1.00  0.00    +0.100 A 
ATOM     12  C   UNL     1      23.749   1.191  52.360  1.00  0.00    +0.058 A 
ENDROOT
BRANCH   1  13
ATOM     13  C   UNL     1      20.660   2.625  50.481  1.00  0.00    -0.025 A 
ATOM     14  C   UNL     1      18.380   3.445  50.715  1.00  0.00    -0.051 A 
ATOM     15  C   UNL     1      18.122   3.073  49.389  1.00  0.00    +0.003 A 
ATOM     16  C   UNL     1      19.651   3.210  51.256  1.00  0.00    +0.011 A 
ATOM     17  C   UNL     1      19.127   2.500  48.610  1.00  0.00    +0.001 A 
ATOM     18  C   UNL     1      20.394   2.281  49.152  1.00  0.00    +0.008 A 
ATOM     19  C   UNL     1      17.289   4.021  51.568  1.00  0.00    +0.044 C 
ENDBRANCH   1  13
BRANCH  11  20
ATOM     20  C   UNL     1      25.417   2.767  51.328  1.00  0.00    +0.067 A 
ATOM     21  C   UNL     1      26.497   2.856  50.473  1.00  0.00    +0.035 A 
ATOM     22  N   UNL     1      24.754   3.966  51.224  1.00  0.00    -0.340 N 
ATOM     23  C   UNL     1      26.425   4.099  49.774  1.00  0.00    -0.008 A 
ATOM     24  C   UNL     1      25.314   4.771  50.261  1.00  0.00    +0.109 A 
ATOM     25  H   UNL     1      23.937   4.198  51.766  1.00  0.00    +0.168 HD
ATOM     26  C   UNL     1      27.411   4.548  48.756  1.00  0.00    +0.048 C 
BRANCH  24  27
ATOM     27  N   UNL     1      24.745   5.972  49.963  1.00  0.00    -0.353 N 
ATOM     28  C   UNL     1      24.050   6.223  48.689  1.00  0.00    +0.146 C 
ATOM     29  C   UNL     1      24.651   7.054  50.953  1.00  0.00    +0.146 C 
ATOM     30  C   UNL     1      22.909   7.233  48.891  1.00  0.00    +0.181 C 
ATOM     31  C   UNL     1      24.501   8.410  50.240  1.00  0.00    +0.181 C 
ATOM     32  O   UNL     1      23.342   8.504  49.398  1.00  0.00    -0.378 OA
ENDBRANCH  24  27
ENDBRANCH  11  20
TORSDOF 3
ENDMDL
