MODEL 1
REMARK VINA RESULT:    -8.054      0.000      0.000
REMARK INTER + INTRA:         -10.423
REMARK INTER:                 -10.173
REMARK INTRA:                  -0.251
REMARK UNBOUND:                -0.251
REMARK SMILES O=C(O)c1cc(O)c(O)c(Cc2cccc(Cl)c2)c1
REMARK SMILES IDX 4 1 5 2 6 3 8 4 10 5 19 6 2 7 1 8 3 9 7 11 11 13 12 14 13 15
REMARK SMILES IDX 18 16 14 17 16 18 15 19 17 20 9 21
REMARK H PARENT 3 10 7 12 9 22
ROOT
ATOM      1  C   UNL     1      27.482  -1.013  52.910  1.00  0.00    +0.064 A 
ATOM      2  C   UNL     1      28.691  -0.493  53.389  1.00  0.00    +0.065 A 
ATOM      3  C   UNL     1      28.738   0.834  53.794  1.00  0.00    +0.158 A 
ATOM      4  C   UNL     1      27.602   1.645  53.727  1.00  0.00    +0.161 A 
ATOM      5  C   UNL     1      26.388   1.149  53.249  1.00  0.00    +0.003 A 
ATOM      6  C   UNL     1      26.341  -0.196  52.843  1.00  0.00    +0.023 A 
ENDROOT
BRANCH   1   7
ATOM      7  C   UNL     1      27.360  -2.421  52.461  1.00  0.00    +0.335 C 
ATOM      8  O   UNL     1      26.507  -2.862  51.714  1.00  0.00    -0.246 OA
BRANCH   7   9
ATOM      9  O   UNL     1      28.317  -3.216  52.973  1.00  0.00    -0.478 OA
ATOM     10  H   UNL     1      29.141  -2.875  52.565  1.00  0.00    +0.297 HD
ENDBRANCH   7   9
ENDBRANCH   1   7
BRANCH   3  11
ATOM     11  O   UNL     1      29.888   1.400  54.273  1.00  0.00    -0.504 OA
ATOM     12  H   UNL     1      30.613   0.759  54.167  1.00  0.00    +0.293 HD
ENDBRANCH   3  11
BRANCH   5  13
ATOM     13  C   UNL     1      25.144   2.003  53.191  1.00  0.00    +0.075 C 
BRANCH  13  14
ATOM     14  C   UNL     1      23.906   1.232  52.789  1.00  0.00    -0.042 A 
ATOM     15  C   UNL     1      23.282   1.486  51.558  1.00  0.00    +0.004 A 
ATOM     16  C   UNL     1      23.349   0.273  53.648  1.00  0.00    +0.024 A 
ATOM     17  C   UNL     1      22.130   0.789  51.187  1.00  0.00    +0.002 A 
ATOM     18  C   UNL     1      22.197  -0.420  53.271  1.00  0.00    +0.041 A 
ATOM     19  C   UNL     1      21.587  -0.166  52.045  1.00  0.00    +0.020 A 
ATOM     20 Cl   UNL     1      21.525  -1.597  54.332  1.00  0.00    -0.084 Cl
ENDBRANCH  13  14
ENDBRANCH   5  13
BRANCH   4  21
ATOM     21  O   UNL     1      27.704   2.945  54.141  1.00  0.00    -0.504 OA
ATOM     22  H   UNL     1      28.662   3.083  54.289  1.00  0.00    +0.293 HD
ENDBRANCH   4  21
TORSDOF 6
ENDMDL
MODEL 2
REMARK VINA RESULT:    -7.914      1.247      2.051
REMARK INTER + INTRA:         -10.247
REMARK INTER:                 -10.014
REMARK INTRA:                  -0.233
REMARK UNBOUND:                -0.251
REMARK SMILES O=C(O)c1cc(O)c(O)c(Cc2cccc(Cl)c2)c1
REMARK SMILES IDX 4 1 5 2 6 3 8 4 10 5 19 6 2 7 1 8 3 9 7 11 11 13 12 14 13 15
REMARK SMILES IDX 18 16 14 17 16 18 15 19 17 20 9 21
REMARK H PARENT 3 10 7 12 9 22
ROOT
ATOM      1  C   UNL     1      27.718  -0.896  53.164  1.00  0.00    +0.064 A 
ATOM      2  C   UNL     1      28.436   0.171  53.718  1.00  0.00    +0.065 A 
ATOM      3  C   UNL     1      27.840   1.425  53.774  1.00  0.00    +0.158 A 
ATOM      4  C   UNL     1      26.547   1.626  53.287  1.00  0.00    +0.161 A 
ATOM      5  C   UNL     1      25.814   0.578  52.727  1.00  0.00    +0.003 A 
ATOM      6  C   UNL     1      26.417  -0.691  52.674  1.00  0.00    +0.023 A 
ENDROOT
BRANCH   1   7
ATOM      7  C   UNL     1      28.292  -2.260  53.073  1.00  0.00    +0.335 C 
ATOM      8  O   UNL     1      29.361  -2.618  53.531  1.00  0.00    -0.246 OA
BRANCH   7   9
ATOM      9  O   UNL     1      27.496  -3.117  52.408  1.00  0.00    -0.478 OA
ATOM     10  H   UNL     1      27.001  -3.572  53.122  1.00  0.00    +0.297 HD
ENDBRANCH   7   9
ENDBRANCH   1   7
BRANCH   3  11
ATOM     11  O   UNL     1      28.489   2.507  54.305  1.00  0.00    -0.504 OA
ATOM     12  H   UNL     1      29.425   2.461  54.044  1.00  0.00    +0.293 HD
ENDBRANCH   3  11
BRANCH   5  13
ATOM     13  C   UNL     1      24.406   0.770  52.216  1.00  0.00    +0.075 C 
BRANCH  13  14
ATOM     14  C   UNL     1      23.360   0.089  53.070  1.00  0.00    -0.042 A 
ATOM     15  C   UNL     1      23.734  -0.593  54.238  1.00  0.00    +0.004 A 
ATOM     16  C   UNL     1      22.008   0.107  52.697  1.00  0.00    +0.024 A 
ATOM     17  C   UNL     1      22.776  -1.238  55.023  1.00  0.00    +0.002 A 
ATOM     18  C   UNL     1      21.055  -0.540  53.486  1.00  0.00    +0.041 A 
ATOM     19  C   UNL     1      21.434  -1.210  54.648  1.00  0.00    +0.020 A 
ATOM     20 Cl   UNL     1      19.398  -0.509  53.020  1.00  0.00    -0.084 Cl
ENDBRANCH  13  14
ENDBRANCH   5  13
BRANCH   4  21
ATOM     21  O   UNL     1      26.007   2.881  53.368  1.00  0.00    -0.504 OA
ATOM     22  H   UNL     1      25.730   2.970  54.303  1.00  0.00    +0.293 HD
ENDBRANCH   4  21
TORSDOF 6
ENDMDL
MODEL 3
REMARK VINA RESULT:    -7.891      1.462      1.827
REMARK INTER + INTRA:         -10.217
REMARK INTER:                  -9.896
REMARK INTRA:                  -0.321
REMARK UNBOUND:                -0.251
REMARK SMILES O=C(O)c1cc(O)c(O)c(Cc2cccc(Cl)c2)c1
REMARK SMILES IDX 4 1 5 2 6 3 8 4 10 5 19 6 2 7 1 8 3 9 7 11 11 13 12 14 13 15
REMARK SMILES IDX 18 16 14 17 16 18 15 19 17 20 9 21
REMARK H PARENT 3 10 7 12 9 22
ROOT
ATOM      1  C   UNL     1      27.549  -1.029  52.929  1.00  0.00    +0.064 A 
ATOM      2  C   UNL     1      28.805  -0.513  53.274  1.00  0.00    +0.065 A 
ATOM      3  C   UNL     1      28.895   0.806  53.698  1.00  0.00    +0.158 A 
ATOM      4  C   UNL     1      27.757   1.612  53.781  1.00  0.00    +0.161 A 
ATOM      5  C   UNL     1      26.497   1.120  53.439  1.00  0.00    +0.003 A 
ATOM      6  C   UNL     1      26.406  -0.217  53.013  1.00  0.00    +0.023 A 
ENDROOT
BRANCH   1   7
ATOM      7  C   UNL     1      27.379  -2.429  52.469  1.00  0.00    +0.335 C 
ATOM      8  O   UNL     1      26.507  -2.836  51.725  1.00  0.00    -0.246 OA
BRANCH   7   9
ATOM      9  O   UNL     1      28.315  -3.258  52.965  1.00  0.00    -0.478 OA
ATOM     10  H   UNL     1      28.361  -3.012  53.913  1.00  0.00    +0.297 HD
ENDBRANCH   7   9
ENDBRANCH   1   7
BRANCH   3  11
ATOM     11  O   UNL     1      30.092   1.369  54.050  1.00  0.00    -0.504 OA
ATOM     12  H   UNL     1      30.449   0.879  54.811  1.00  0.00    +0.293 HD
ENDBRANCH   3  11
BRANCH   5  13
ATOM     13  C   UNL     1      25.252   1.968  53.544  1.00  0.00    +0.075 C 
BRANCH  13  14
ATOM     14  C   UNL     1      24.068   1.391  52.800  1.00  0.00    -0.042 A 
ATOM     15  C   UNL     1      23.273   0.399  53.395  1.00  0.00    +0.004 A 
ATOM     16  C   UNL     1      23.761   1.818  51.500  1.00  0.00    +0.024 A 
ATOM     17  C   UNL     1      22.189  -0.150  52.708  1.00  0.00    +0.002 A 
ATOM     18  C   UNL     1      22.676   1.265  50.819  1.00  0.00    +0.041 A 
ATOM     19  C   UNL     1      21.888   0.284  51.418  1.00  0.00    +0.020 A 
ATOM     20 Cl   UNL     1      22.307   1.799  49.224  1.00  0.00    -0.084 Cl
ENDBRANCH  13  14
ENDBRANCH   5  13
BRANCH   4  21
ATOM     21  O   UNL     1      27.903   2.904  54.206  1.00  0.00    -0.504 OA
ATOM     22  H   UNL     1      27.828   3.442  53.392  1.00  0.00    +0.293 HD
ENDBRANCH   4  21
TORSDOF 6
ENDMDL
MODEL 4
REMARK VINA RESULT:    -7.681      1.527      3.798
REMARK INTER + INTRA:          -9.953
REMARK INTER:                  -9.596
REMARK INTRA:                  -0.357
REMARK UNBOUND:                -0.251
REMARK SMILES O=C(O)c1cc(O)c(O)c(Cc2cccc(Cl)c2)c1
REMARK SMILES IDX 4 1 5 2 6 3 8 4 10 5 19 6 2 7 1 8 3 9 7 11 11 13 12 14 13 15
REMARK SMILES IDX 18 16 14 17 16 18 15 19 17 20 9 21
REMARK H PARENT 3 10 7 12 9 22
ROOT
ATOM      1  C   UNL     1      28.827   0.948  53.766  1.00  0.00    +0.064 A 
ATOM      2  C   UNL     1      29.549  -0.248  53.855  1.00  0.00    +0.065 A 
ATOM      3  C   UNL     1      28.939  -1.432  53.461  1.00  0.00    +0.158 A 
ATOM      4  C   UNL     1      27.626  -1.438  52.985  1.00  0.00    +0.161 A 
ATOM      5  C   UNL     1      26.887  -0.259  52.892  1.00  0.00    +0.003 A 
ATOM      6  C   UNL     1      27.506   0.940  53.286  1.00  0.00    +0.023 A 
ENDROOT
BRANCH   1   7
ATOM      7  C   UNL     1      29.416   2.249  54.168  1.00  0.00    +0.335 C 
ATOM      8  O   UNL     1      29.844   2.528  55.272  1.00  0.00    -0.246 OA
BRANCH   7   9
ATOM      9  O   UNL     1      29.440   3.142  53.163  1.00  0.00    -0.478 OA
ATOM     10  H   UNL     1      29.705   2.607  52.385  1.00  0.00    +0.297 HD
ENDBRANCH   7   9
ENDBRANCH   1   7
BRANCH   3  11
ATOM     11  O   UNL     1      29.593  -2.634  53.523  1.00  0.00    -0.504 OA
ATOM     12  H   UNL     1      30.228  -2.600  54.259  1.00  0.00    +0.293 HD
ENDBRANCH   3  11
BRANCH   5  13
ATOM     13  C   UNL     1      25.474  -0.241  52.357  1.00  0.00    +0.075 C 
BRANCH  13  14
ATOM     14  C   UNL     1      24.432  -0.561  53.405  1.00  0.00    -0.042 A 
ATOM     15  C   UNL     1      24.821  -0.891  54.713  1.00  0.00    +0.004 A 
ATOM     16  C   UNL     1      23.067  -0.557  53.083  1.00  0.00    +0.024 A 
ATOM     17  C   UNL     1      23.865  -1.203  55.682  1.00  0.00    +0.002 A 
ATOM     18  C   UNL     1      22.116  -0.869  54.056  1.00  0.00    +0.041 A 
ATOM     19  C   UNL     1      22.510  -1.191  55.354  1.00  0.00    +0.020 A 
ATOM     20 Cl   UNL     1      20.444  -0.858  53.650  1.00  0.00    -0.084 Cl
ENDBRANCH  13  14
ENDBRANCH   5  13
BRANCH   4  21
ATOM     21  O   UNL     1      27.075  -2.633  52.609  1.00  0.00    -0.504 OA
ATOM     22  H   UNL     1      27.600  -2.914  51.833  1.00  0.00    +0.293 HD
ENDBRANCH   4  21
TORSDOF 6
ENDMDL
MODEL 5
REMARK VINA RESULT:    -7.394      2.177      2.877
REMARK INTER + INTRA:          -9.590
REMARK INTER:                  -9.015
REMARK INTRA:                  -0.575
REMARK UNBOUND:                -0.251
REMARK SMILES O=C(O)c1cc(O)c(O)c(Cc2cccc(Cl)c2)c1
REMARK SMILES IDX 4 1 5 2 6 3 8 4 10 5 19 6 2 7 1 8 3 9 7 11 11 13 12 14 13 15
REMARK SMILES IDX 18 16 14 17 16 18 15 19 17 20 9 21
REMARK H PARENT 3 10 7 12 9 22
ROOT
ATOM      1  C   UNL     1      26.793  -0.590  53.025  1.00  0.00    +0.064 A 
ATOM      2  C   UNL     1      27.633   0.471  53.386  1.00  0.00    +0.065 A 
ATOM      3  C   UNL     1      27.068   1.708  53.669  1.00  0.00    +0.158 A 
ATOM      4  C   UNL     1      25.686   1.899  53.595  1.00  0.00    +0.161 A 
ATOM      5  C   UNL     1      24.831   0.856  53.234  1.00  0.00    +0.003 A 
ATOM      6  C   UNL     1      25.404  -0.396  52.952  1.00  0.00    +0.023 A 
ENDROOT
BRANCH   1   7
ATOM      7  C   UNL     1      27.328  -1.938  52.711  1.00  0.00    +0.335 C 
ATOM      8  O   UNL     1      28.285  -2.469  53.243  1.00  0.00    -0.246 OA
BRANCH   7   9
ATOM      9  O   UNL     1      26.635  -2.559  51.740  1.00  0.00    -0.478 OA
ATOM     10  H   UNL     1      27.091  -2.281  50.918  1.00  0.00    +0.297 HD
ENDBRANCH   7   9
ENDBRANCH   1   7
BRANCH   3  11
ATOM     11  O   UNL     1      27.834   2.784  54.028  1.00  0.00    -0.504 OA
ATOM     12  H   UNL     1      28.663   2.453  54.418  1.00  0.00    +0.293 HD
ENDBRANCH   3  11
BRANCH   5  13
ATOM     13  C   UNL     1      23.333   1.036  53.172  1.00  0.00    +0.075 C 
BRANCH  13  14
ATOM     14  C   UNL     1      22.812   1.245  51.768  1.00  0.00    -0.042 A 
ATOM     15  C   UNL     1      21.793   0.423  51.261  1.00  0.00    +0.004 A 
ATOM     16  C   UNL     1      23.351   2.244  50.944  1.00  0.00    +0.024 A 
ATOM     17  C   UNL     1      21.318   0.599  49.960  1.00  0.00    +0.002 A 
ATOM     18  C   UNL     1      22.871   2.415  49.645  1.00  0.00    +0.041 A 
ATOM     19  C   UNL     1      21.857   1.598  49.150  1.00  0.00    +0.020 A 
ATOM     20 Cl   UNL     1      23.540   3.646  48.644  1.00  0.00    -0.084 Cl
ENDBRANCH  13  14
ENDBRANCH   5  13
BRANCH   4  21
ATOM     21  O   UNL     1      25.183   3.137  53.886  1.00  0.00    -0.504 OA
ATOM     22  H   UNL     1      24.312   3.160  53.440  1.00  0.00    +0.293 HD
ENDBRANCH   4  21
TORSDOF 6
ENDMDL
MODEL 6
REMARK VINA RESULT:    -7.272      3.548      5.948
REMARK INTER + INTRA:          -9.436
REMARK INTER:                  -8.970
REMARK INTRA:                  -0.466
REMARK UNBOUND:                -0.251
REMARK SMILES O=C(O)c1cc(O)c(O)c(Cc2cccc(Cl)c2)c1
REMARK SMILES IDX 4 1 5 2 6 3 8 4 10 5 19 6 2 7 1 8 3 9 7 11 11 13 12 14 13 15
REMARK SMILES IDX 18 16 14 17 16 18 15 19 17 20 9 21
REMARK H PARENT 3 10 7 12 9 22
ROOT
ATOM      1  C   UNL     1      21.811  -0.074  53.841  1.00  0.00    +0.064 A 
ATOM      2  C   UNL     1      20.787   0.862  53.656  1.00  0.00    +0.065 A 
ATOM      3  C   UNL     1      21.023   1.964  52.844  1.00  0.00    +0.158 A 
ATOM      4  C   UNL     1      22.260   2.143  52.220  1.00  0.00    +0.161 A 
ATOM      5  C   UNL     1      23.296   1.225  52.394  1.00  0.00    +0.003 A 
ATOM      6  C   UNL     1      23.054   0.108  53.213  1.00  0.00    +0.023 A 
ENDROOT
BRANCH   1   7
ATOM      7  C   UNL     1      21.628  -1.274  54.694  1.00  0.00    +0.335 C 
ATOM      8  O   UNL     1      22.466  -1.763  55.428  1.00  0.00    -0.246 OA
BRANCH   7   9
ATOM      9  O   UNL     1      20.398  -1.808  54.585  1.00  0.00    -0.478 OA
ATOM     10  H   UNL     1      20.574  -2.750  54.376  1.00  0.00    +0.297 HD
ENDBRANCH   7   9
ENDBRANCH   1   7
BRANCH   3  11
ATOM     11  O   UNL     1      20.062   2.914  52.622  1.00  0.00    -0.504 OA
ATOM     12  H   UNL     1      20.226   3.318  51.752  1.00  0.00    +0.293 HD
ENDBRANCH   3  11
BRANCH   5  13
ATOM     13  C   UNL     1      24.632   1.388  51.710  1.00  0.00    +0.075 C 
BRANCH  13  14
ATOM     14  C   UNL     1      25.789   0.835  52.512  1.00  0.00    -0.042 A 
ATOM     15  C   UNL     1      26.406   1.620  53.498  1.00  0.00    +0.004 A 
ATOM     16  C   UNL     1      26.277  -0.457  52.269  1.00  0.00    +0.024 A 
ATOM     17  C   UNL     1      27.485   1.123  54.232  1.00  0.00    +0.002 A 
ATOM     18  C   UNL     1      27.355  -0.949  53.006  1.00  0.00    +0.041 A 
ATOM     19  C   UNL     1      27.960  -0.165  53.987  1.00  0.00    +0.020 A 
ATOM     20 Cl   UNL     1      27.944  -2.537  52.701  1.00  0.00    -0.084 Cl
ENDBRANCH  13  14
ENDBRANCH   5  13
BRANCH   4  21
ATOM     21  O   UNL     1      22.438   3.246  51.430  1.00  0.00    -0.504 OA
ATOM     22  H   UNL     1      21.689   3.222  50.800  1.00  0.00    +0.293 HD
ENDBRANCH   4  21
TORSDOF 6
ENDMDL
MODEL 7
REMARK VINA RESULT:    -7.175      1.633      2.254
REMARK INTER + INTRA:          -9.313
REMARK INTER:                  -8.834
REMARK INTRA:                  -0.480
REMARK UNBOUND:                -0.251
REMARK SMILES O=C(O)c1cc(O)c(O)c(Cc2cccc(Cl)c2)c1
REMARK SMILES IDX 4 1 5 2 6 3 8 4 10 5 19 6 2 7 1 8 3 9 7 11 11 13 12 14 13 15
REMARK SMILES IDX 18 16 14 17 16 18 15 19 17 20 9 21
REMARK H PARENT 3 10 7 12 9 22
ROOT
ATOM      1  C   UNL     1      26.691  -0.655  52.692  1.00  0.00    +0.064 A 
ATOM      2  C   UNL     1      27.526   0.447  52.469  1.00  0.00    +0.065 A 
ATOM      3  C   UNL     1      26.986   1.725  52.548  1.00  0.00    +0.158 A 
ATOM      4  C   UNL     1      25.634   1.915  52.843  1.00  0.00    +0.161 A 
ATOM      5  C   UNL     1      24.784   0.831  53.065  1.00  0.00    +0.003 A 
ATOM      6  C   UNL     1      25.332  -0.462  52.989  1.00  0.00    +0.023 A 
ENDROOT
BRANCH   1   7
ATOM      7  C   UNL     1      27.201  -2.047  52.624  1.00  0.00    +0.335 C 
ATOM      8  O   UNL     1      28.119  -2.504  53.277  1.00  0.00    -0.246 OA
BRANCH   7   9
ATOM      9  O   UNL     1      26.531  -2.803  51.735  1.00  0.00    -0.478 OA
ATOM     10  H   UNL     1      26.445  -2.218  50.953  1.00  0.00    +0.297 HD
ENDBRANCH   7   9
ENDBRANCH   1   7
BRANCH   3  11
ATOM     11  O   UNL     1      27.749   2.842  52.341  1.00  0.00    -0.504 OA
ATOM     12  H   UNL     1      27.197   3.626  52.508  1.00  0.00    +0.293 HD
ENDBRANCH   3  11
BRANCH   5  13
ATOM     13  C   UNL     1      23.325   1.016  53.410  1.00  0.00    +0.075 C 
BRANCH  13  14
ATOM     14  C   UNL     1      22.411   0.935  52.208  1.00  0.00    -0.042 A 
ATOM     15  C   UNL     1      22.854   1.370  50.949  1.00  0.00    +0.004 A 
ATOM     16  C   UNL     1      21.101   0.450  52.336  1.00  0.00    +0.024 A 
ATOM     17  C   UNL     1      22.010   1.314  49.839  1.00  0.00    +0.002 A 
ATOM     18  C   UNL     1      20.262   0.397  51.221  1.00  0.00    +0.041 A 
ATOM     19  C   UNL     1      20.712   0.825  49.974  1.00  0.00    +0.020 A 
ATOM     20 Cl   UNL     1      18.657  -0.203  51.390  1.00  0.00    -0.084 Cl
ENDBRANCH  13  14
ENDBRANCH   5  13
BRANCH   4  21
ATOM     21  O   UNL     1      25.155   3.195  52.910  1.00  0.00    -0.504 OA
ATOM     22  H   UNL     1      25.598   3.663  52.174  1.00  0.00    +0.293 HD
ENDBRANCH   4  21
TORSDOF 6
ENDMDL
MODEL 8
REMARK VINA RESULT:    -7.068      3.937      5.875
REMARK INTER + INTRA:          -9.178
REMARK INTER:                  -8.600
REMARK INTRA:                  -0.578
REMARK UNBOUND:                -0.251
REMARK SMILES O=C(O)c1cc(O)c(O)c(Cc2cccc(Cl)c2)c1
REMARK SMILES IDX 4 1 5 2 6 3 8 4 10 5 19 6 2 7 1 8 3 9 7 11 11 13 12 14 13 15
REMARK SMILES IDX 18 16 14 17 16 18 15 19 17 20 9 21
REMARK H PARENT 3 10 7 12 9 22
ROOT
ATOM      1  C   UNL     1      21.085  -0.522  53.494  1.00  0.00    +0.064 A 
ATOM      2  C   UNL     1      21.457  -1.251  54.631  1.00  0.00    +0.065 A 
ATOM      3  C   UNL     1      22.800  -1.315  54.979  1.00  0.00    +0.158 A 
ATOM      4  C   UNL     1      23.770  -0.666  54.213  1.00  0.00    +0.161 A 
ATOM      5  C   UNL     1      23.424   0.063  53.074  1.00  0.00    +0.003 A 
ATOM      6  C   UNL     1      22.064   0.129  52.725  1.00  0.00    +0.023 A 
ENDROOT
BRANCH   1   7
ATOM      7  C   UNL     1      19.670  -0.412  53.065  1.00  0.00    +0.335 C 
ATOM      8  O   UNL     1      19.275   0.097  52.033  1.00  0.00    -0.246 OA
BRANCH   7   9
ATOM      9  O   UNL     1      18.813  -0.946  53.953  1.00  0.00    -0.478 OA
ATOM     10  H   UNL     1      19.185  -1.837  54.124  1.00  0.00    +0.297 HD
ENDBRANCH   7   9
ENDBRANCH   1   7
BRANCH   3  11
ATOM     11  O   UNL     1      23.226  -2.010  56.079  1.00  0.00    -0.504 OA
ATOM     12  H   UNL     1      22.508  -2.601  56.365  1.00  0.00    +0.293 HD
ENDBRANCH   3  11
BRANCH   5  13
ATOM     13  C   UNL     1      24.456   0.791  52.246  1.00  0.00    +0.075 C 
BRANCH  13  14
ATOM     14  C   UNL     1      24.049   2.202  51.887  1.00  0.00    -0.042 A 
ATOM     15  C   UNL     1      23.924   3.179  52.886  1.00  0.00    +0.004 A 
ATOM     16  C   UNL     1      23.768   2.551  50.558  1.00  0.00    +0.024 A 
ATOM     17  C   UNL     1      23.533   4.481  52.564  1.00  0.00    +0.002 A 
ATOM     18  C   UNL     1      23.379   3.853  50.242  1.00  0.00    +0.041 A 
ATOM     19  C   UNL     1      23.262   4.819  51.239  1.00  0.00    +0.020 A 
ATOM     20 Cl   UNL     1      23.039   4.270  48.607  1.00  0.00    -0.084 Cl
ENDBRANCH  13  14
ENDBRANCH   5  13
BRANCH   4  21
ATOM     21  O   UNL     1      25.079  -0.760  54.602  1.00  0.00    -0.504 OA
ATOM     22  H   UNL     1      25.218  -1.714  54.770  1.00  0.00    +0.293 HD
ENDBRANCH   4  21
TORSDOF 6
ENDMDL
MODEL 9
REMARK VINA RESULT:    -6.962      3.712      6.110
REMARK INTER + INTRA:          -9.044
REMARK INTER:                  -8.652
REMARK INTRA:                  -0.392
REMARK UNBOUND:                -0.251
REMARK SMILES O=C(O)c1cc(O)c(O)c(Cc2cccc(Cl)c2)c1
REMARK SMILES IDX 4 1 5 2 6 3 8 4 10 5 19 6 2 7 1 8 3 9 7 11 11 13 12 14 13 15
REMARK SMILES IDX 18 16 14 17 16 18 15 19 17 20 9 21
REMARK H PARENT 3 10 7 12 9 22
ROOT
ATOM      1  C   UNL     1      21.650  -0.247  53.116  1.00  0.00    +0.064 A 
ATOM      2  C   UNL     1      21.065  -0.144  51.848  1.00  0.00    +0.065 A 
ATOM      3  C   UNL     1      21.640   0.703  50.910  1.00  0.00    +0.158 A 
ATOM      4  C   UNL     1      22.782   1.445  51.219  1.00  0.00    +0.161 A 
ATOM      5  C   UNL     1      23.379   1.361  52.477  1.00  0.00    +0.003 A 
ATOM      6  C   UNL     1      22.799   0.500  53.425  1.00  0.00    +0.023 A 
ENDROOT
BRANCH   1   7
ATOM      7  C   UNL     1      21.090  -1.133  54.166  1.00  0.00    +0.335 C 
ATOM      8  O   UNL     1      21.716  -1.659  55.066  1.00  0.00    -0.246 OA
BRANCH   7   9
ATOM      9  O   UNL     1      19.764  -1.319  54.037  1.00  0.00    -0.478 OA
ATOM     10  H   UNL     1      19.605  -2.171  54.496  1.00  0.00    +0.297 HD
ENDBRANCH   7   9
ENDBRANCH   1   7
BRANCH   3  11
ATOM     11  O   UNL     1      21.116   0.847  49.653  1.00  0.00    -0.504 OA
ATOM     12  H   UNL     1      20.429   0.169  49.529  1.00  0.00    +0.293 HD
ENDBRANCH   3  11
BRANCH   5  13
ATOM     13  C   UNL     1      24.628   2.137  52.823  1.00  0.00    +0.075 C 
BRANCH  13  14
ATOM     14  C   UNL     1      25.858   1.267  52.954  1.00  0.00    -0.042 A 
ATOM     15  C   UNL     1      25.872  -0.026  52.410  1.00  0.00    +0.004 A 
ATOM     16  C   UNL     1      26.991   1.727  53.641  1.00  0.00    +0.024 A 
ATOM     17  C   UNL     1      26.997  -0.841  52.541  1.00  0.00    +0.002 A 
ATOM     18  C   UNL     1      28.114   0.907  53.768  1.00  0.00    +0.041 A 
ATOM     19  C   UNL     1      28.122  -0.374  53.220  1.00  0.00    +0.020 A 
ATOM     20 Cl   UNL     1      29.500   1.483  54.611  1.00  0.00    -0.084 Cl
ENDBRANCH  13  14
ENDBRANCH   5  13
BRANCH   4  21
ATOM     21  O   UNL     1      23.308   2.264  50.257  1.00  0.00    -0.504 OA
ATOM     22  H   UNL     1      23.324   3.151  50.669  1.00  0.00    +0.293 HD
ENDBRANCH   4  21
TORSDOF 6
ENDMDL
