REMARK SMILES CN1CCN(c2ccc3c(ccn3C=C(N)C(C#N)=C(C#N)C#N)c2)CC1
REMARK SMILES IDX 6 1 7 2 8 3 9 4 10 5 11 6 12 7 13 8 25 9 5 10 2 11 3 12
REMARK SMILES IDX 27 13 4 14 26 15 1 16 14 17 15 18 16 19 17 22 18 23 20 24
REMARK SMILES IDX 19 25 21 26 23 27 22 28 24 29
REMARK H PARENT 16 20 16 21
ROOT
ATOM      1  C   UNL     1      -1.513  -0.138   0.170  1.00  0.00    +0.037 A 
ATOM      2  C   UNL     1      -0.757  -1.308   0.308  1.00  0.00    +0.028 A 
ATOM      3  C   UNL     1       0.623  -1.366   0.047  1.00  0.00    +0.029 A 
ATOM      4  C   UNL     1       1.277  -0.199  -0.379  1.00  0.00    +0.052 A 
ATOM      5  C   UNL     1       0.566   0.991  -0.529  1.00  0.00    +0.002 A 
ATOM      6  C   UNL     1       1.480   1.973  -0.967  1.00  0.00    +0.028 A 
ATOM      7  C   UNL     1       2.712   1.373  -1.075  1.00  0.00    +0.092 A 
ATOM      8  N   UNL     1       2.623   0.045  -0.698  1.00  0.00    -0.321 N 
ATOM      9  C   UNL     1      -0.822   1.009  -0.256  1.00  0.00    +0.036 A 
ENDROOT
BRANCH   1  10
ATOM     10  N   UNL     1      -2.874  -0.109   0.430  1.00  0.00    -0.369 N 
ATOM     11  N   UNL     1      -5.793  -0.068   1.128  1.00  0.00    -0.303 NA
ATOM     12  C   UNL     1      -4.800   0.884   1.669  1.00  0.00    +0.105 C 
ATOM     13  C   UNL     1      -5.165  -1.023   0.189  1.00  0.00    +0.105 C 
ATOM     14  C   UNL     1      -3.561   1.147   0.779  1.00  0.00    +0.132 C 
ATOM     15  C   UNL     1      -3.683  -1.336   0.500  1.00  0.00    +0.132 C 
ATOM     16  C   UNL     1      -6.912   0.620   0.489  1.00  0.00    +0.105 C 
ENDBRANCH   1  10
BRANCH   8  17
ATOM     17  C   UNL     1       3.642  -0.925  -0.648  1.00  0.00    +0.118 C 
ATOM     18  C   UNL     1       4.984  -0.841  -0.774  1.00  0.00    +0.068 C 
BRANCH  18  19
ATOM     19  N   UNL     1       5.768  -1.983  -0.681  1.00  0.00    -0.396 N 
ATOM     20  H   UNL     1       6.599  -1.983  -1.273  1.00  0.00    +0.156 HD
ATOM     21  H   UNL     1       5.254  -2.857  -0.787  1.00  0.00    +0.156 HD
ENDBRANCH  18  19
BRANCH  18  22
ATOM     22  C   UNL     1       5.732   0.412  -0.903  1.00  0.00    +0.105 C 
ATOM     23  C   UNL     1       6.143   0.759  -2.229  1.00  0.00    +0.104 C 
ATOM     24  C   UNL     1       6.060   1.179   0.161  1.00  0.00    +0.149 C 
ATOM     25  N   UNL     1       6.482   1.032  -3.303  1.00  0.00    -0.192 NA
ATOM     26  C   UNL     1       5.684   0.812   1.486  1.00  0.00    +0.112 C 
ATOM     27  C   UNL     1       6.801   2.385   0.007  1.00  0.00    +0.112 C 
ATOM     28  N   UNL     1       5.376   0.521   2.566  1.00  0.00    -0.192 NA
ATOM     29  N   UNL     1       7.399   3.369  -0.134  1.00  0.00    -0.192 NA
ENDBRANCH  18  22
ENDBRANCH   8  17
TORSDOF 4
