MODEL 1
REMARK VINA RESULT:    -8.832      0.000      0.000
REMARK INTER + INTRA:         -11.260
REMARK INTER:                 -10.639
REMARK INTRA:                  -0.622
REMARK UNBOUND:                -0.622
REMARK SMILES O=[N+]([O-])c1ccc(O)cc1-c1ccc(-c2cccc(Cl)c2)[nH]1
REMARK SMILES IDX 4 1 5 2 6 3 7 4 9 5 10 6 2 7 1 8 3 9 11 10 12 11 22 12 13 13
REMARK SMILES IDX 14 14 15 16 16 17 21 18 17 19 19 20 18 21 20 22 8 23
REMARK H PARENT 22 15 8 24
ROOT
ATOM      1  C   UNL     1      28.262   0.600  53.280  1.00  0.00    +0.278 A 
ATOM      2  C   UNL     1      29.510   0.027  53.554  1.00  0.00    +0.090 A 
ATOM      3  C   UNL     1      29.631  -1.361  53.540  1.00  0.00    +0.053 A 
ATOM      4  C   UNL     1      28.516  -2.147  53.258  1.00  0.00    +0.116 A 
ATOM      5  C   UNL     1      27.273  -1.572  52.987  1.00  0.00    +0.063 A 
ATOM      6  C   UNL     1      27.127  -0.175  52.995  1.00  0.00    +0.079 A 
ENDROOT
BRANCH   1   7
ATOM      7  N   UNL     1      28.183   2.045  53.265  1.00  0.00    +0.063 N 
ATOM      8  O   UNL     1      28.364   2.627  54.344  1.00  0.00    -0.258 OA
ATOM      9  O   UNL     1      27.991   2.588  52.169  1.00  0.00    -0.258 OA
ENDBRANCH   1   7
BRANCH   6  10
ATOM     10  C   UNL     1      25.808   0.395  52.739  1.00  0.00    +0.053 A 
ATOM     11  C   UNL     1      24.661   0.383  53.508  1.00  0.00    +0.029 A 
ATOM     12  N   UNL     1      25.515   1.109  51.598  1.00  0.00    -0.354 N 
ATOM     13  C   UNL     1      23.661   1.094  52.803  1.00  0.00    +0.029 A 
ATOM     14  C   UNL     1      24.204   1.534  51.608  1.00  0.00    +0.046 A 
ATOM     15  H   UNL     1      26.183   1.331  50.873  1.00  0.00    +0.167 HD
BRANCH  14  16
ATOM     16  C   UNL     1      23.612   2.326  50.528  1.00  0.00    -0.001 A 
ATOM     17  C   UNL     1      22.436   1.895  49.899  1.00  0.00    +0.010 A 
ATOM     18  C   UNL     1      24.207   3.518  50.096  1.00  0.00    +0.030 A 
ATOM     19  C   UNL     1      21.858   2.641  48.868  1.00  0.00    +0.002 A 
ATOM     20  C   UNL     1      23.628   4.260  49.065  1.00  0.00    +0.041 A 
ATOM     21  C   UNL     1      22.455   3.828  48.451  1.00  0.00    +0.020 A 
ATOM     22 Cl   UNL     1      24.373   5.723  48.547  1.00  0.00    -0.084 Cl
ENDBRANCH  14  16
ENDBRANCH   6  10
BRANCH   4  23
ATOM     23  O   UNL     1      28.685  -3.499  53.263  1.00  0.00    -0.508 OA
ATOM     24  H   UNL     1      29.178  -3.765  52.469  1.00  0.00    +0.293 HD
ENDBRANCH   4  23
TORSDOF 4
ENDMDL
MODEL 2
REMARK VINA RESULT:    -8.774      2.710      3.694
REMARK INTER + INTRA:         -11.191
REMARK INTER:                 -10.970
REMARK INTRA:                  -0.222
REMARK UNBOUND:                -0.622
REMARK SMILES O=[N+]([O-])c1ccc(O)cc1-c1ccc(-c2cccc(Cl)c2)[nH]1
REMARK SMILES IDX 4 1 5 2 6 3 7 4 9 5 10 6 2 7 1 8 3 9 11 10 12 11 22 12 13 13
REMARK SMILES IDX 14 14 15 16 16 17 21 18 17 19 19 20 18 21 20 22 8 23
REMARK H PARENT 22 15 8 24
ROOT
ATOM      1  C   UNL     1      28.046   0.516  53.305  1.00  0.00    +0.278 A 
ATOM      2  C   UNL     1      29.300  -0.011  53.641  1.00  0.00    +0.090 A 
ATOM      3  C   UNL     1      29.495  -1.388  53.560  1.00  0.00    +0.053 A 
ATOM      4  C   UNL     1      28.448  -2.209  53.152  1.00  0.00    +0.116 A 
ATOM      5  C   UNL     1      27.198  -1.681  52.819  1.00  0.00    +0.063 A 
ATOM      6  C   UNL     1      26.978  -0.296  52.892  1.00  0.00    +0.079 A 
ENDROOT
BRANCH   1   7
ATOM      7  N   UNL     1      27.892   1.954  53.362  1.00  0.00    +0.063 N 
ATOM      8  O   UNL     1      27.272   2.411  54.333  1.00  0.00    -0.258 OA
ATOM      9  O   UNL     1      28.433   2.615  52.467  1.00  0.00    -0.258 OA
ENDBRANCH   1   7
BRANCH   6  10
ATOM     10  C   UNL     1      25.653   0.223  52.569  1.00  0.00    +0.053 A 
ATOM     11  C   UNL     1      25.278   1.308  51.800  1.00  0.00    +0.029 A 
ATOM     12  N   UNL     1      24.493  -0.371  53.014  1.00  0.00    -0.354 N 
ATOM     13  C   UNL     1      23.864   1.366  51.798  1.00  0.00    +0.029 A 
ATOM     14  C   UNL     1      23.386   0.319  52.567  1.00  0.00    +0.046 A 
ATOM     15  H   UNL     1      24.456  -1.223  53.556  1.00  0.00    +0.167 HD
BRANCH  14  16
ATOM     16  C   UNL     1      22.014  -0.087  52.874  1.00  0.00    -0.001 A 
ATOM     17  C   UNL     1      21.758  -0.967  53.936  1.00  0.00    +0.010 A 
ATOM     18  C   UNL     1      20.933   0.384  52.117  1.00  0.00    +0.030 A 
ATOM     19  C   UNL     1      20.453  -1.362  54.243  1.00  0.00    +0.002 A 
ATOM     20  C   UNL     1      19.631  -0.014  52.426  1.00  0.00    +0.041 A 
ATOM     21  C   UNL     1      19.386  -0.883  53.486  1.00  0.00    +0.020 A 
ATOM     22 Cl   UNL     1      18.316   0.575  51.484  1.00  0.00    -0.084 Cl
ENDBRANCH  14  16
ENDBRANCH   6  10
BRANCH   4  23
ATOM     23  O   UNL     1      28.687  -3.550  53.096  1.00  0.00    -0.508 OA
ATOM     24  H   UNL     1      28.029  -3.971  52.518  1.00  0.00    +0.293 HD
ENDBRANCH   4  23
TORSDOF 4
ENDMDL
MODEL 3
REMARK VINA RESULT:    -8.111      2.757      4.041
REMARK INTER + INTRA:         -10.392
REMARK INTER:                  -9.955
REMARK INTRA:                  -0.437
REMARK UNBOUND:                -0.622
REMARK SMILES O=[N+]([O-])c1ccc(O)cc1-c1ccc(-c2cccc(Cl)c2)[nH]1
REMARK SMILES IDX 4 1 5 2 6 3 7 4 9 5 10 6 2 7 1 8 3 9 11 10 12 11 22 12 13 13
REMARK SMILES IDX 14 14 15 16 16 17 21 18 17 19 19 20 18 21 20 22 8 23
REMARK H PARENT 22 15 8 24
ROOT
ATOM      1  C   UNL     1      28.087  -1.026  53.279  1.00  0.00    +0.278 A 
ATOM      2  C   UNL     1      29.467  -0.796  53.214  1.00  0.00    +0.090 A 
ATOM      3  C   UNL     1      29.973   0.406  53.701  1.00  0.00    +0.053 A 
ATOM      4  C   UNL     1      29.104   1.353  54.238  1.00  0.00    +0.116 A 
ATOM      5  C   UNL     1      27.728   1.121  54.300  1.00  0.00    +0.063 A 
ATOM      6  C   UNL     1      27.195  -0.084  53.816  1.00  0.00    +0.079 A 
ENDROOT
BRANCH   1   7
ATOM      7  N   UNL     1      27.602  -2.302  52.800  1.00  0.00    +0.063 N 
ATOM      8  O   UNL     1      26.655  -2.276  52.000  1.00  0.00    -0.258 OA
ATOM      9  O   UNL     1      28.201  -3.314  53.186  1.00  0.00    -0.258 OA
ENDBRANCH   1   7
BRANCH   6  10
ATOM     10  C   UNL     1      25.750  -0.284  53.865  1.00  0.00    +0.053 A 
ATOM     11  C   UNL     1      24.962  -0.907  54.813  1.00  0.00    +0.029 A 
ATOM     12  N   UNL     1      24.900   0.189  52.889  1.00  0.00    -0.354 N 
ATOM     13  C   UNL     1      23.617  -0.813  54.384  1.00  0.00    +0.029 A 
ATOM     14  C   UNL     1      23.592  -0.136  53.177  1.00  0.00    +0.046 A 
ATOM     15  H   UNL     1      25.191   0.739  52.093  1.00  0.00    +0.167 HD
BRANCH  14  16
ATOM     16  C   UNL     1      22.467   0.246  52.323  1.00  0.00    -0.001 A 
ATOM     17  C   UNL     1      22.677   1.057  51.198  1.00  0.00    +0.010 A 
ATOM     18  C   UNL     1      21.164  -0.181  52.610  1.00  0.00    +0.030 A 
ATOM     19  C   UNL     1      21.612   1.428  50.371  1.00  0.00    +0.002 A 
ATOM     20  C   UNL     1      20.103   0.193  51.782  1.00  0.00    +0.041 A 
ATOM     21  C   UNL     1      20.321   0.993  50.664  1.00  0.00    +0.020 A 
ATOM     22 Cl   UNL     1      18.508  -0.340  52.151  1.00  0.00    -0.084 Cl
ENDBRANCH  14  16
ENDBRANCH   6  10
BRANCH   4  23
ATOM     23  O   UNL     1      29.648   2.516  54.695  1.00  0.00    -0.508 OA
ATOM     24  H   UNL     1      28.937   3.144  54.904  1.00  0.00    +0.293 HD
ENDBRANCH   4  23
TORSDOF 4
ENDMDL
MODEL 4
REMARK VINA RESULT:    -7.829      3.544      4.930
REMARK INTER + INTRA:         -10.052
REMARK INTER:                  -9.583
REMARK INTRA:                  -0.469
REMARK UNBOUND:                -0.622
REMARK SMILES O=[N+]([O-])c1ccc(O)cc1-c1ccc(-c2cccc(Cl)c2)[nH]1
REMARK SMILES IDX 4 1 5 2 6 3 7 4 9 5 10 6 2 7 1 8 3 9 11 10 12 11 22 12 13 13
REMARK SMILES IDX 14 14 15 16 16 17 21 18 17 19 19 20 18 21 20 22 8 23
REMARK H PARENT 22 15 8 24
ROOT
ATOM      1  C   UNL     1      22.140   0.271  52.804  1.00  0.00    +0.278 A 
ATOM      2  C   UNL     1      21.140  -0.389  53.529  1.00  0.00    +0.090 A 
ATOM      3  C   UNL     1      21.503  -1.152  54.636  1.00  0.00    +0.053 A 
ATOM      4  C   UNL     1      22.845  -1.247  54.996  1.00  0.00    +0.116 A 
ATOM      5  C   UNL     1      23.840  -0.589  54.270  1.00  0.00    +0.063 A 
ATOM      6  C   UNL     1      23.497   0.187  53.151  1.00  0.00    +0.079 A 
ENDROOT
BRANCH   1   7
ATOM      7  N   UNL     1      21.720   1.086  51.684  1.00  0.00    +0.063 N 
ATOM      8  O   UNL     1      21.693   0.539  50.572  1.00  0.00    -0.258 OA
ATOM      9  O   UNL     1      21.375   2.249  51.931  1.00  0.00    -0.258 OA
ENDBRANCH   1   7
BRANCH   6  10
ATOM     10  C   UNL     1      24.561   0.837  52.393  1.00  0.00    +0.053 A 
ATOM     11  C   UNL     1      25.878   0.468  52.199  1.00  0.00    +0.029 A 
ATOM     12  N   UNL     1      24.365   2.002  51.686  1.00  0.00    -0.354 N 
ATOM     13  C   UNL     1      26.481   1.442  51.368  1.00  0.00    +0.029 A 
ATOM     14  C   UNL     1      25.529   2.400  51.063  1.00  0.00    +0.046 A 
ATOM     15  H   UNL     1      23.478   2.478  51.597  1.00  0.00    +0.167 HD
BRANCH  14  16
ATOM     16  C   UNL     1      25.620   3.601  50.230  1.00  0.00    -0.001 A 
ATOM     17  C   UNL     1      24.479   4.379  49.987  1.00  0.00    +0.010 A 
ATOM     18  C   UNL     1      26.837   3.993  49.658  1.00  0.00    +0.030 A 
ATOM     19  C   UNL     1      24.551   5.530  49.196  1.00  0.00    +0.002 A 
ATOM     20  C   UNL     1      26.904   5.142  48.867  1.00  0.00    +0.041 A 
ATOM     21  C   UNL     1      25.768   5.913  48.635  1.00  0.00    +0.020 A 
ATOM     22 Cl   UNL     1      28.407   5.608  48.170  1.00  0.00    -0.084 Cl
ENDBRANCH  14  16
ENDBRANCH   6  10
BRANCH   4  23
ATOM     23  O   UNL     1      23.150  -2.012  56.083  1.00  0.00    -0.508 OA
ATOM     24  H   UNL     1      23.585  -1.460  56.754  1.00  0.00    +0.293 HD
ENDBRANCH   4  23
TORSDOF 4
ENDMDL
MODEL 5
REMARK VINA RESULT:    -7.794      2.728      4.237
REMARK INTER + INTRA:         -10.010
REMARK INTER:                  -9.598
REMARK INTRA:                  -0.412
REMARK UNBOUND:                -0.622
REMARK SMILES O=[N+]([O-])c1ccc(O)cc1-c1ccc(-c2cccc(Cl)c2)[nH]1
REMARK SMILES IDX 4 1 5 2 6 3 7 4 9 5 10 6 2 7 1 8 3 9 11 10 12 11 22 12 13 13
REMARK SMILES IDX 14 14 15 16 16 17 21 18 17 19 19 20 18 21 20 22 8 23
REMARK H PARENT 22 15 8 24
ROOT
ATOM      1  C   UNL     1      24.488  -0.041  53.566  1.00  0.00    +0.278 A 
ATOM      2  C   UNL     1      24.468  -0.849  54.710  1.00  0.00    +0.090 A 
ATOM      3  C   UNL     1      23.245  -1.330  55.173  1.00  0.00    +0.053 A 
ATOM      4  C   UNL     1      22.074  -0.996  54.498  1.00  0.00    +0.116 A 
ATOM      5  C   UNL     1      22.098  -0.188  53.359  1.00  0.00    +0.063 A 
ATOM      6  C   UNL     1      23.318   0.306  52.873  1.00  0.00    +0.079 A 
ENDROOT
BRANCH   1   7
ATOM      7  N   UNL     1      25.780   0.406  53.091  1.00  0.00    +0.063 N 
ATOM      8  O   UNL     1      26.257   1.414  53.632  1.00  0.00    -0.258 OA
ATOM      9  O   UNL     1      26.329  -0.280  52.219  1.00  0.00    -0.258 OA
ENDBRANCH   1   7
BRANCH   6  10
ATOM     10  C   UNL     1      23.308   1.174  51.700  1.00  0.00    +0.053 A 
ATOM     11  C   UNL     1      22.350   1.347  50.719  1.00  0.00    +0.029 A 
ATOM     12  N   UNL     1      24.343   2.034  51.402  1.00  0.00    -0.354 N 
ATOM     13  C   UNL     1      22.832   2.321  49.813  1.00  0.00    +0.029 A 
ATOM     14  C   UNL     1      24.081   2.734  50.244  1.00  0.00    +0.046 A 
ATOM     15  H   UNL     1      25.162   2.166  51.977  1.00  0.00    +0.167 HD
BRANCH  14  16
ATOM     16  C   UNL     1      24.999   3.730  49.687  1.00  0.00    -0.001 A 
ATOM     17  C   UNL     1      26.362   3.434  49.550  1.00  0.00    +0.010 A 
ATOM     18  C   UNL     1      24.540   4.992  49.288  1.00  0.00    +0.030 A 
ATOM     19  C   UNL     1      27.250   4.374  49.018  1.00  0.00    +0.002 A 
ATOM     20  C   UNL     1      25.431   5.928  48.759  1.00  0.00    +0.041 A 
ATOM     21  C   UNL     1      26.783   5.624  48.620  1.00  0.00    +0.020 A 
ATOM     22 Cl   UNL     1      24.851   7.475  48.275  1.00  0.00    -0.084 Cl
ENDBRANCH  14  16
ENDBRANCH   6  10
BRANCH   4  23
ATOM     23  O   UNL     1      20.903  -1.485  54.995  1.00  0.00    -0.508 OA
ATOM     24  H   UNL     1      21.078  -1.959  55.825  1.00  0.00    +0.293 HD
ENDBRANCH   4  23
TORSDOF 4
ENDMDL
MODEL 6
REMARK VINA RESULT:    -7.739      3.919      4.816
REMARK INTER + INTRA:          -9.945
REMARK INTER:                  -9.388
REMARK INTRA:                  -0.557
REMARK UNBOUND:                -0.622
REMARK SMILES O=[N+]([O-])c1ccc(O)cc1-c1ccc(-c2cccc(Cl)c2)[nH]1
REMARK SMILES IDX 4 1 5 2 6 3 7 4 9 5 10 6 2 7 1 8 3 9 11 10 12 11 22 12 13 13
REMARK SMILES IDX 14 14 15 16 16 17 21 18 17 19 19 20 18 21 20 22 8 23
REMARK H PARENT 22 15 8 24
ROOT
ATOM      1  C   UNL     1      24.932   1.046  52.410  1.00  0.00    +0.278 A 
ATOM      2  C   UNL     1      26.240   1.378  52.036  1.00  0.00    +0.090 A 
ATOM      3  C   UNL     1      27.285   0.544  52.428  1.00  0.00    +0.053 A 
ATOM      4  C   UNL     1      27.011  -0.595  53.182  1.00  0.00    +0.116 A 
ATOM      5  C   UNL     1      25.706  -0.922  53.555  1.00  0.00    +0.063 A 
ATOM      6  C   UNL     1      24.637  -0.097  53.170  1.00  0.00    +0.079 A 
ENDROOT
BRANCH   1   7
ATOM      7  N   UNL     1      23.869   1.914  51.951  1.00  0.00    +0.063 N 
ATOM      8  O   UNL     1      23.492   2.798  52.733  1.00  0.00    -0.258 OA
ATOM      9  O   UNL     1      23.454   1.737  50.798  1.00  0.00    -0.258 OA
ENDBRANCH   1   7
BRANCH   6  10
ATOM     10  C   UNL     1      23.287  -0.448  53.602  1.00  0.00    +0.053 A 
ATOM     11  C   UNL     1      22.836  -0.973  54.797  1.00  0.00    +0.029 A 
ATOM     12  N   UNL     1      22.180  -0.260  52.805  1.00  0.00    -0.354 N 
ATOM     13  C   UNL     1      21.430  -1.112  54.703  1.00  0.00    +0.029 A 
ATOM     14  C   UNL     1      21.034  -0.674  53.451  1.00  0.00    +0.046 A 
ATOM     15  H   UNL     1      22.198   0.164  51.888  1.00  0.00    +0.167 HD
BRANCH  14  16
ATOM     16  C   UNL     1      19.702  -0.585  52.851  1.00  0.00    -0.001 A 
ATOM     17  C   UNL     1      18.628  -1.294  53.407  1.00  0.00    +0.010 A 
ATOM     18  C   UNL     1      19.473   0.199  51.712  1.00  0.00    +0.030 A 
ATOM     19  C   UNL     1      17.350  -1.217  52.847  1.00  0.00    +0.002 A 
ATOM     20  C   UNL     1      18.194   0.271  51.154  1.00  0.00    +0.041 A 
ATOM     21  C   UNL     1      17.132  -0.431  51.717  1.00  0.00    +0.020 A 
ATOM     22 Cl   UNL     1      17.931   1.238  49.754  1.00  0.00    -0.084 Cl
ENDBRANCH  14  16
ENDBRANCH   6  10
BRANCH   4  23
ATOM     23  O   UNL     1      28.068  -1.374  53.547  1.00  0.00    -0.508 OA
ATOM     24  H   UNL     1      28.719  -0.832  54.022  1.00  0.00    +0.293 HD
ENDBRANCH   4  23
TORSDOF 4
ENDMDL
MODEL 7
REMARK VINA RESULT:    -7.724      5.407      7.838
REMARK INTER + INTRA:          -9.926
REMARK INTER:                  -9.457
REMARK INTRA:                  -0.469
REMARK UNBOUND:                -0.622
REMARK SMILES O=[N+]([O-])c1ccc(O)cc1-c1ccc(-c2cccc(Cl)c2)[nH]1
REMARK SMILES IDX 4 1 5 2 6 3 7 4 9 5 10 6 2 7 1 8 3 9 11 10 12 11 22 12 13 13
REMARK SMILES IDX 14 14 15 16 16 17 21 18 17 19 19 20 18 21 20 22 8 23
REMARK H PARENT 22 15 8 24
ROOT
ATOM      1  C   UNL     1      18.995   0.537  52.167  1.00  0.00    +0.278 A 
ATOM      2  C   UNL     1      17.687   0.591  51.670  1.00  0.00    +0.090 A 
ATOM      3  C   UNL     1      16.790  -0.414  52.024  1.00  0.00    +0.053 A 
ATOM      4  C   UNL     1      17.209  -1.448  52.857  1.00  0.00    +0.116 A 
ATOM      5  C   UNL     1      18.515  -1.500  53.349  1.00  0.00    +0.063 A 
ATOM      6  C   UNL     1      19.436  -0.497  53.007  1.00  0.00    +0.079 A 
ENDROOT
BRANCH   1   7
ATOM      7  N   UNL     1      19.887   1.620  51.810  1.00  0.00    +0.063 N 
ATOM      8  O   UNL     1      20.454   1.538  50.710  1.00  0.00    -0.258 OA
ATOM      9  O   UNL     1      19.976   2.563  52.606  1.00  0.00    -0.258 OA
ENDBRANCH   1   7
BRANCH   6  10
ATOM     10  C   UNL     1      20.802  -0.596  53.510  1.00  0.00    +0.053 A 
ATOM     11  C   UNL     1      21.292  -1.166  54.669  1.00  0.00    +0.029 A 
ATOM     12  N   UNL     1      21.887  -0.104  52.818  1.00  0.00    -0.354 N 
ATOM     13  C   UNL     1      22.698  -1.000  54.670  1.00  0.00    +0.029 A 
ATOM     14  C   UNL     1      23.055  -0.326  53.515  1.00  0.00    +0.046 A 
ATOM     15  H   UNL     1      21.839   0.321  51.903  1.00  0.00    +0.167 HD
BRANCH  14  16
ATOM     16  C   UNL     1      24.372   0.079  53.018  1.00  0.00    -0.001 A 
ATOM     17  C   UNL     1      24.507   1.238  52.242  1.00  0.00    +0.010 A 
ATOM     18  C   UNL     1      25.515  -0.680  53.298  1.00  0.00    +0.030 A 
ATOM     19  C   UNL     1      25.758   1.639  51.762  1.00  0.00    +0.002 A 
ATOM     20  C   UNL     1      26.762  -0.278  52.816  1.00  0.00    +0.041 A 
ATOM     21  C   UNL     1      26.889   0.879  52.051  1.00  0.00    +0.020 A 
ATOM     22 Cl   UNL     1      28.157  -1.223  53.169  1.00  0.00    -0.084 Cl
ENDBRANCH  14  16
ENDBRANCH   6  10
BRANCH   4  23
ATOM     23  O   UNL     1      16.296  -2.411  53.169  1.00  0.00    -0.508 OA
ATOM     24  H   UNL     1      15.526  -1.999  53.594  1.00  0.00    +0.293 HD
ENDBRANCH   4  23
TORSDOF 4
ENDMDL
MODEL 8
REMARK VINA RESULT:    -7.667      3.106      4.600
REMARK INTER + INTRA:          -9.857
REMARK INTER:                  -9.431
REMARK INTRA:                  -0.426
REMARK UNBOUND:                -0.622
REMARK SMILES O=[N+]([O-])c1ccc(O)cc1-c1ccc(-c2cccc(Cl)c2)[nH]1
REMARK SMILES IDX 4 1 5 2 6 3 7 4 9 5 10 6 2 7 1 8 3 9 11 10 12 11 22 12 13 13
REMARK SMILES IDX 14 14 15 16 16 17 21 18 17 19 19 20 18 21 20 22 8 23
REMARK H PARENT 22 15 8 24
ROOT
ATOM      1  C   UNL     1      27.294  -0.172  53.270  1.00  0.00    +0.278 A 
ATOM      2  C   UNL     1      28.623  -0.240  53.707  1.00  0.00    +0.090 A 
ATOM      3  C   UNL     1      29.362   0.937  53.804  1.00  0.00    +0.053 A 
ATOM      4  C   UNL     1      28.770   2.151  53.463  1.00  0.00    +0.116 A 
ATOM      5  C   UNL     1      27.446   2.215  53.025  1.00  0.00    +0.063 A 
ATOM      6  C   UNL     1      26.681   1.042  52.922  1.00  0.00    +0.079 A 
ENDROOT
BRANCH   1   7
ATOM      7  N   UNL     1      26.546  -1.410  53.221  1.00  0.00    +0.063 N 
ATOM      8  O   UNL     1      25.766  -1.630  54.158  1.00  0.00    -0.258 OA
ATOM      9  O   UNL     1      26.707  -2.127  52.224  1.00  0.00    -0.258 OA
ENDBRANCH   1   7
BRANCH   6  10
ATOM     10  C   UNL     1      25.310   1.137  52.431  1.00  0.00    +0.053 A 
ATOM     11  C   UNL     1      24.785   1.845  51.368  1.00  0.00    +0.029 A 
ATOM     12  N   UNL     1      24.265   0.447  53.006  1.00  0.00    -0.354 N 
ATOM     13  C   UNL     1      23.395   1.580  51.318  1.00  0.00    +0.029 A 
ATOM     14  C   UNL     1      23.082   0.715  52.352  1.00  0.00    +0.046 A 
ATOM     15  H   UNL     1      24.360  -0.201  53.775  1.00  0.00    +0.167 HD
BRANCH  14  16
ATOM     16  C   UNL     1      21.803   0.114  52.736  1.00  0.00    -0.001 A 
ATOM     17  C   UNL     1      21.735  -0.767  53.824  1.00  0.00    +0.010 A 
ATOM     18  C   UNL     1      20.629   0.400  52.027  1.00  0.00    +0.030 A 
ATOM     19  C   UNL     1      20.521  -1.347  54.204  1.00  0.00    +0.002 A 
ATOM     20  C   UNL     1      19.418  -0.183  52.409  1.00  0.00    +0.041 A 
ATOM     21  C   UNL     1      19.358  -1.052  53.495  1.00  0.00    +0.020 A 
ATOM     22 Cl   UNL     1      17.985   0.178  51.526  1.00  0.00    -0.084 Cl
ENDBRANCH  14  16
ENDBRANCH   6  10
BRANCH   4  23
ATOM     23  O   UNL     1      29.537   3.273  53.568  1.00  0.00    -0.508 OA
ATOM     24  H   UNL     1      29.347   3.715  54.412  1.00  0.00    +0.293 HD
ENDBRANCH   4  23
TORSDOF 4
ENDMDL
MODEL 9
REMARK VINA RESULT:    -7.451      3.991      5.652
REMARK INTER + INTRA:          -9.597
REMARK INTER:                  -9.154
REMARK INTRA:                  -0.443
REMARK UNBOUND:                -0.622
REMARK SMILES O=[N+]([O-])c1ccc(O)cc1-c1ccc(-c2cccc(Cl)c2)[nH]1
REMARK SMILES IDX 4 1 5 2 6 3 7 4 9 5 10 6 2 7 1 8 3 9 11 10 12 11 22 12 13 13
REMARK SMILES IDX 14 14 15 16 16 17 21 18 17 19 19 20 18 21 20 22 8 23
REMARK H PARENT 22 15 8 24
ROOT
ATOM      1  C   UNL     1      20.948   1.162  53.004  1.00  0.00    +0.278 A 
ATOM      2  C   UNL     1      20.584   0.497  54.182  1.00  0.00    +0.090 A 
ATOM      3  C   UNL     1      21.513  -0.338  54.799  1.00  0.00    +0.053 A 
ATOM      4  C   UNL     1      22.776  -0.497  54.236  1.00  0.00    +0.116 A 
ATOM      5  C   UNL     1      23.135   0.165  53.060  1.00  0.00    +0.063 A 
ATOM      6  C   UNL     1      22.216   1.013  52.421  1.00  0.00    +0.079 A 
ENDROOT
BRANCH   1   7
ATOM      7  N   UNL     1      19.971   2.051  52.413  1.00  0.00    +0.063 N 
ATOM      8  O   UNL     1      19.093   1.530  51.711  1.00  0.00    -0.258 OA
ATOM      9  O   UNL     1      20.060   3.253  52.695  1.00  0.00    -0.258 OA
ENDBRANCH   1   7
BRANCH   6  10
ATOM     10  C   UNL     1      22.609   1.667  51.177  1.00  0.00    +0.053 A 
ATOM     11  C   UNL     1      22.038   1.620  49.920  1.00  0.00    +0.029 A 
ATOM     12  N   UNL     1      23.691   2.515  51.092  1.00  0.00    -0.354 N 
ATOM     13  C   UNL     1      22.806   2.449  49.067  1.00  0.00    +0.029 A 
ATOM     14  C   UNL     1      23.840   2.993  49.808  1.00  0.00    +0.046 A 
ATOM     15  H   UNL     1      24.271   2.785  51.874  1.00  0.00    +0.167 HD
BRANCH  14  16
ATOM     16  C   UNL     1      24.901   3.925  49.421  1.00  0.00    -0.001 A 
ATOM     17  C   UNL     1      26.241   3.512  49.425  1.00  0.00    +0.010 A 
ATOM     18  C   UNL     1      24.605   5.242  49.046  1.00  0.00    +0.030 A 
ATOM     19  C   UNL     1      27.264   4.389  49.056  1.00  0.00    +0.002 A 
ATOM     20  C   UNL     1      25.631   6.117  48.680  1.00  0.00    +0.041 A 
ATOM     21  C   UNL     1      26.958   5.695  48.680  1.00  0.00    +0.020 A 
ATOM     22 Cl   UNL     1      25.249   7.732  48.223  1.00  0.00    -0.084 Cl
ENDBRANCH  14  16
ENDBRANCH   6  10
BRANCH   4  23
ATOM     23  O   UNL     1      23.646  -1.330  54.874  1.00  0.00    -0.508 OA
ATOM     24  H   UNL     1      23.178  -2.136  55.148  1.00  0.00    +0.293 HD
ENDBRANCH   4  23
TORSDOF 4
ENDMDL
