REMARK SMILES O=[N+]([O-])c1ccc(O)cc1-c1ccc(-c2cccc(Br)c2)[nH]1
REMARK SMILES IDX 4 1 5 2 6 3 7 4 9 5 10 6 2 7 1 8 3 9 11 10 12 11 22 12 13 13
REMARK SMILES IDX 14 14 15 16 16 17 21 18 17 19 19 20 18 21 20 22 8 23
REMARK H PARENT 22 15 8 24
ROOT
ATOM      1  C   UNL     1      -3.125  -1.004  -0.242  1.00  0.00    +0.278 A 
ATOM      2  C   UNL     1      -4.424  -0.811   0.253  1.00  0.00    +0.090 A 
ATOM      3  C   UNL     1      -4.757   0.410   0.835  1.00  0.00    +0.053 A 
ATOM      4  C   UNL     1      -3.792   1.411   0.910  1.00  0.00    +0.116 A 
ATOM      5  C   UNL     1      -2.502   1.215   0.412  1.00  0.00    +0.063 A 
ATOM      6  C   UNL     1      -2.141  -0.005  -0.180  1.00  0.00    +0.079 A 
ENDROOT
BRANCH   1   7
ATOM      7  N   UNL     1      -2.818  -2.307  -0.791  1.00  0.00    +0.063 N 
ATOM      8  O   UNL     1      -3.279  -2.564  -1.912  1.00  0.00    -0.258 OA
ATOM      9  O   UNL     1      -2.169  -3.082  -0.076  1.00  0.00    -0.258 OA
ENDBRANCH   1   7
BRANCH   6  10
ATOM     10  C   UNL     1      -0.788  -0.163  -0.713  1.00  0.00    +0.053 A 
ATOM     11  C   UNL     1      -0.348  -0.565  -1.960  1.00  0.00    +0.029 A 
ATOM     12  N   UNL     1       0.339   0.092   0.038  1.00  0.00    -0.354 N 
ATOM     13  C   UNL     1       1.068  -0.552  -1.946  1.00  0.00    +0.029 A 
ATOM     14  C   UNL     1       1.484  -0.131  -0.695  1.00  0.00    +0.046 A 
ATOM     15  H   UNL     1       0.329   0.368   1.011  1.00  0.00    +0.167 HD
BRANCH  14  16
ATOM     16  C   UNL     1       2.831   0.044  -0.149  1.00  0.00    -0.001 A 
ATOM     17  C   UNL     1       3.865  -0.824  -0.529  1.00  0.00    +0.010 A 
ATOM     18  C   UNL     1       3.116   1.076   0.755  1.00  0.00    +0.026 A 
ATOM     19  C   UNL     1       5.155  -0.671  -0.014  1.00  0.00    +0.002 A 
ATOM     20  C   UNL     1       4.407   1.224   1.267  1.00  0.00    +0.018 A 
ATOM     21  C   UNL     1       5.428   0.355   0.888  1.00  0.00    +0.016 A 
ATOM     22 Br   UNL     1       4.775   2.624   2.484  1.00  0.00    -0.051 Br
ENDBRANCH  14  16
ENDBRANCH   6  10
BRANCH   4  23
ATOM     23  O   UNL     1      -4.070   2.622   1.471  1.00  0.00    -0.508 OA
ATOM     24  H   UNL     1      -5.001   2.640   1.748  1.00  0.00    +0.293 HD
ENDBRANCH   4  23
TORSDOF 4
