MODEL 1
REMARK VINA RESULT:    -8.789      0.000      0.000
REMARK INTER + INTRA:         -11.212
REMARK INTER:                 -10.587
REMARK INTRA:                  -0.624
REMARK UNBOUND:                -0.624
REMARK SMILES Cc1cc(C)c(-c2ccc(-c3cc(O)ccc3[N+](=O)[O-])[nH]2)[nH]1
REMARK SMILES IDX 11 1 12 2 13 3 15 4 16 5 17 6 10 7 7 8 8 9 21 10 9 11 6 13
REMARK SMILES IDX 2 14 3 15 22 16 4 17 1 18 5 20 18 21 19 22 20 23 14 24
REMARK H PARENT 21 12 22 19 14 25
ROOT
ATOM      1  C   UNL     1      27.164  -0.206  53.039  1.00  0.00    +0.079 A 
ATOM      2  C   UNL     1      27.318  -1.601  53.064  1.00  0.00    +0.063 A 
ATOM      3  C   UNL     1      28.571  -2.175  53.289  1.00  0.00    +0.116 A 
ATOM      4  C   UNL     1      29.701  -1.390  53.493  1.00  0.00    +0.053 A 
ATOM      5  C   UNL     1      29.575  -0.002  53.476  1.00  0.00    +0.090 A 
ATOM      6  C   UNL     1      28.312   0.569  53.252  1.00  0.00    +0.278 A 
ENDROOT
BRANCH   1   7
ATOM      7  C   UNL     1      25.839   0.355  52.776  1.00  0.00    +0.053 A 
ATOM      8  C   UNL     1      24.246   1.506  51.654  1.00  0.00    +0.063 A 
ATOM      9  C   UNL     1      23.663   0.989  52.791  1.00  0.00    +0.030 A 
ATOM     10  N   UNL     1      25.558   1.106  51.652  1.00  0.00    -0.353 N 
ATOM     11  C   UNL     1      24.661   0.276  53.499  1.00  0.00    +0.029 A 
ATOM     12  H   UNL     1      26.212   1.289  50.904  1.00  0.00    +0.167 HD
BRANCH   8  13
ATOM     13  C   UNL     1      23.672   2.293  50.608  1.00  0.00    +0.065 A 
ATOM     14  C   UNL     1      23.470   4.036  49.195  1.00  0.00    +0.012 A 
ATOM     15  C   UNL     1      22.422   3.176  48.952  1.00  0.00    +0.026 A 
ATOM     16  N   UNL     1      24.218   3.488  50.208  1.00  0.00    -0.357 N 
ATOM     17  C   UNL     1      22.537   2.072  49.846  1.00  0.00    -0.024 A 
ATOM     18  C   UNL     1      23.829   5.332  48.572  1.00  0.00    +0.064 C 
ATOM     19  H   UNL     1      25.029   3.920  50.627  1.00  0.00    +0.166 HD
ATOM     20  C   UNL     1      21.611   0.910  49.917  1.00  0.00    +0.047 C 
ENDBRANCH   8  13
ENDBRANCH   1   7
BRANCH   6  21
ATOM     21  N   UNL     1      28.230   2.014  53.292  1.00  0.00    +0.063 N 
ATOM     22  O   UNL     1      28.013   2.591  52.217  1.00  0.00    -0.258 OA
ATOM     23  O   UNL     1      28.441   2.560  54.382  1.00  0.00    -0.258 OA
ENDBRANCH   6  21
BRANCH   3  24
ATOM     24  O   UNL     1      28.643  -3.537  53.299  1.00  0.00    -0.508 OA
ATOM     25  H   UNL     1      29.339  -3.814  53.918  1.00  0.00    +0.293 HD
ENDBRANCH   3  24
TORSDOF 4
ENDMDL
MODEL 2
REMARK VINA RESULT:    -8.759      1.169      1.424
REMARK INTER + INTRA:         -11.175
REMARK INTER:                 -10.601
REMARK INTRA:                  -0.575
REMARK UNBOUND:                -0.624
REMARK SMILES Cc1cc(C)c(-c2ccc(-c3cc(O)ccc3[N+](=O)[O-])[nH]2)[nH]1
REMARK SMILES IDX 11 1 12 2 13 3 15 4 16 5 17 6 10 7 7 8 8 9 21 10 9 11 6 13
REMARK SMILES IDX 2 14 3 15 22 16 4 17 1 18 5 20 18 21 19 22 20 23 14 24
REMARK H PARENT 21 12 22 19 14 25
ROOT
ATOM      1  C   UNL     1      27.632   0.102  53.081  1.00  0.00    +0.079 A 
ATOM      2  C   UNL     1      27.517  -1.277  52.843  1.00  0.00    +0.063 A 
ATOM      3  C   UNL     1      28.582  -2.138  53.111  1.00  0.00    +0.116 A 
ATOM      4  C   UNL     1      29.788  -1.662  53.617  1.00  0.00    +0.053 A 
ATOM      5  C   UNL     1      29.928  -0.298  53.865  1.00  0.00    +0.090 A 
ATOM      6  C   UNL     1      28.852   0.562  53.597  1.00  0.00    +0.278 A 
ENDROOT
BRANCH   1   7
ATOM      7  C   UNL     1      26.500   0.972  52.765  1.00  0.00    +0.053 A 
ATOM      8  C   UNL     1      25.313   2.514  51.610  1.00  0.00    +0.063 A 
ATOM      9  C   UNL     1      24.538   2.104  52.674  1.00  0.00    +0.030 A 
ATOM     10  N   UNL     1      26.491   1.813  51.671  1.00  0.00    -0.353 N 
ATOM     11  C   UNL     1      25.283   1.146  53.404  1.00  0.00    +0.029 A 
ATOM     12  H   UNL     1      27.225   1.867  50.980  1.00  0.00    +0.167 HD
BRANCH   8  13
ATOM     13  C   UNL     1      25.022   3.457  50.577  1.00  0.00    +0.065 A 
ATOM     14  C   UNL     1      25.292   5.307  49.319  1.00  0.00    +0.012 A 
ATOM     15  C   UNL     1      24.173   4.648  48.860  1.00  0.00    +0.026 A 
ATOM     16  N   UNL     1      25.794   4.573  50.366  1.00  0.00    -0.357 N 
ATOM     17  C   UNL     1      23.990   3.478  49.653  1.00  0.00    -0.024 A 
ATOM     18  C   UNL     1      25.929   6.569  48.874  1.00  0.00    +0.064 C 
ATOM     19  H   UNL     1      26.591   4.836  50.927  1.00  0.00    +0.166 HD
ATOM     20  C   UNL     1      22.899   2.480  49.492  1.00  0.00    +0.047 C 
ENDBRANCH   8  13
ENDBRANCH   1   7
BRANCH   6  21
ATOM     21  N   UNL     1      29.035   1.962  53.918  1.00  0.00    +0.063 N 
ATOM     22  O   UNL     1      28.888   2.771  52.991  1.00  0.00    -0.258 OA
ATOM     23  O   UNL     1      29.381   2.234  55.074  1.00  0.00    -0.258 OA
ENDBRANCH   6  21
BRANCH   3  24
ATOM     24  O   UNL     1      28.396  -3.464  52.854  1.00  0.00    -0.508 OA
ATOM     25  H   UNL     1      28.418  -3.957  53.692  1.00  0.00    +0.293 HD
ENDBRANCH   3  24
TORSDOF 4
ENDMDL
MODEL 3
REMARK VINA RESULT:    -8.714      2.142      3.417
REMARK INTER + INTRA:         -11.121
REMARK INTER:                 -11.113
REMARK INTRA:                  -0.008
REMARK UNBOUND:                -0.624
REMARK SMILES Cc1cc(C)c(-c2ccc(-c3cc(O)ccc3[N+](=O)[O-])[nH]2)[nH]1
REMARK SMILES IDX 11 1 12 2 13 3 15 4 16 5 17 6 10 7 7 8 8 9 21 10 9 11 6 13
REMARK SMILES IDX 2 14 3 15 22 16 4 17 1 18 5 20 18 21 19 22 20 23 14 24
REMARK H PARENT 21 12 22 19 14 25
ROOT
ATOM      1  C   UNL     1      26.988  -0.278  52.902  1.00  0.00    +0.079 A 
ATOM      2  C   UNL     1      27.191  -1.666  52.841  1.00  0.00    +0.063 A 
ATOM      3  C   UNL     1      28.434  -2.219  53.153  1.00  0.00    +0.116 A 
ATOM      4  C   UNL     1      29.507  -1.419  53.532  1.00  0.00    +0.053 A 
ATOM      5  C   UNL     1      29.333  -0.038  53.603  1.00  0.00    +0.090 A 
ATOM      6  C   UNL     1      28.079   0.511  53.291  1.00  0.00    +0.278 A 
ENDROOT
BRANCH   1   7
ATOM      7  C   UNL     1      25.677   0.262  52.544  1.00  0.00    +0.053 A 
ATOM      8  C   UNL     1      23.418   0.403  52.505  1.00  0.00    +0.063 A 
ATOM      9  C   UNL     1      23.913   1.447  51.754  1.00  0.00    +0.030 A 
ATOM     10  N   UNL     1      24.495  -0.298  52.986  1.00  0.00    -0.353 N 
ATOM     11  C   UNL     1      25.327   1.356  51.770  1.00  0.00    +0.029 A 
ATOM     12  H   UNL     1      24.431  -1.082  53.620  1.00  0.00    +0.167 HD
BRANCH   8  13
ATOM     13  C   UNL     1      22.066   0.053  52.806  1.00  0.00    +0.065 A 
ATOM     14  C   UNL     1      19.840  -0.092  52.489  1.00  0.00    +0.012 A 
ATOM     15  C   UNL     1      20.129  -0.672  53.705  1.00  0.00    +0.026 A 
ATOM     16  N   UNL     1      21.027   0.349  51.958  1.00  0.00    -0.357 N 
ATOM     17  C   UNL     1      21.535  -0.581  53.917  1.00  0.00    -0.024 A 
ATOM     18  C   UNL     1      18.550   0.098  51.784  1.00  0.00    +0.064 C 
ATOM     19  H   UNL     1      21.120   0.854  51.088  1.00  0.00    +0.166 HD
ATOM     20  C   UNL     1      22.270  -1.088  55.108  1.00  0.00    +0.047 C 
ENDBRANCH   8  13
ENDBRANCH   1   7
BRANCH   6  21
ATOM     21  N   UNL     1      27.940   1.945  53.428  1.00  0.00    +0.063 N 
ATOM     22  O   UNL     1      28.602   2.648  52.651  1.00  0.00    -0.258 OA
ATOM     23  O   UNL     1      27.220   2.356  54.346  1.00  0.00    -0.258 OA
ENDBRANCH   6  21
BRANCH   3  24
ATOM     24  O   UNL     1      28.555  -3.575  53.070  1.00  0.00    -0.508 OA
ATOM     25  H   UNL     1      28.107  -3.886  52.266  1.00  0.00    +0.293 HD
ENDBRANCH   3  24
TORSDOF 4
ENDMDL
MODEL 4
REMARK VINA RESULT:    -7.782      2.185      3.658
REMARK INTER + INTRA:          -9.998
REMARK INTER:                  -9.707
REMARK INTRA:                  -0.291
REMARK UNBOUND:                -0.624
REMARK SMILES Cc1cc(C)c(-c2ccc(-c3cc(O)ccc3[N+](=O)[O-])[nH]2)[nH]1
REMARK SMILES IDX 11 1 12 2 13 3 15 4 16 5 17 6 10 7 7 8 8 9 21 10 9 11 6 13
REMARK SMILES IDX 2 14 3 15 22 16 4 17 1 18 5 20 18 21 19 22 20 23 14 24
REMARK H PARENT 21 12 22 19 14 25
ROOT
ATOM      1  C   UNL     1      27.217  -0.118  53.851  1.00  0.00    +0.079 A 
ATOM      2  C   UNL     1      27.770   1.094  54.296  1.00  0.00    +0.063 A 
ATOM      3  C   UNL     1      29.146   1.318  54.224  1.00  0.00    +0.116 A 
ATOM      4  C   UNL     1      30.011   0.354  53.714  1.00  0.00    +0.053 A 
ATOM      5  C   UNL     1      29.488  -0.856  53.263  1.00  0.00    +0.090 A 
ATOM      6  C   UNL     1      28.103  -1.074  53.335  1.00  0.00    +0.278 A 
ENDROOT
BRANCH   1   7
ATOM      7  C   UNL     1      25.773  -0.322  53.966  1.00  0.00    +0.053 A 
ATOM      8  C   UNL     1      23.599  -0.235  53.346  1.00  0.00    +0.063 A 
ATOM      9  C   UNL     1      23.657  -0.861  54.572  1.00  0.00    +0.030 A 
ATOM     10  N   UNL     1      24.886   0.075  52.986  1.00  0.00    -0.353 N 
ATOM     11  C   UNL     1      25.017  -0.908  54.967  1.00  0.00    +0.029 A 
ATOM     12  H   UNL     1      25.150   0.486  52.102  1.00  0.00    +0.167 HD
BRANCH   8  13
ATOM     13  C   UNL     1      22.470   0.054  52.519  1.00  0.00    +0.065 A 
ATOM     14  C   UNL     1      21.358   0.865  50.735  1.00  0.00    +0.012 A 
ATOM     15  C   UNL     1      20.432   0.297  51.584  1.00  0.00    +0.026 A 
ATOM     16  N   UNL     1      22.590   0.714  51.321  1.00  0.00    -0.357 N 
ATOM     17  C   UNL     1      21.126  -0.214  52.718  1.00  0.00    -0.024 A 
ATOM     18  C   UNL     1      21.191   1.548  49.430  1.00  0.00    +0.064 C 
ATOM     19  H   UNL     1      23.457   1.072  50.945  1.00  0.00    +0.166 HD
ATOM     20  C   UNL     1      20.504  -0.911  53.877  1.00  0.00    +0.047 C 
ENDBRANCH   8  13
ENDBRANCH   1   7
BRANCH   6  21
ATOM     21  N   UNL     1      27.609  -2.329  52.809  1.00  0.00    +0.063 N 
ATOM     22  O   UNL     1      28.204  -3.356  53.163  1.00  0.00    -0.258 OA
ATOM     23  O   UNL     1      26.671  -2.272  52.004  1.00  0.00    -0.258 OA
ENDBRANCH   6  21
BRANCH   3  24
ATOM     24  O   UNL     1      29.610   2.518  54.676  1.00  0.00    -0.508 OA
ATOM     25  H   UNL     1      30.026   2.392  55.545  1.00  0.00    +0.293 HD
ENDBRANCH   3  24
TORSDOF 4
ENDMDL
MODEL 5
REMARK VINA RESULT:    -7.506      3.671      4.900
REMARK INTER + INTRA:          -9.666
REMARK INTER:                  -9.238
REMARK INTRA:                  -0.428
REMARK UNBOUND:                -0.624
REMARK SMILES Cc1cc(C)c(-c2ccc(-c3cc(O)ccc3[N+](=O)[O-])[nH]2)[nH]1
REMARK SMILES IDX 11 1 12 2 13 3 15 4 16 5 17 6 10 7 7 8 8 9 21 10 9 11 6 13
REMARK SMILES IDX 2 14 3 15 22 16 4 17 1 18 5 20 18 21 19 22 20 23 14 24
REMARK H PARENT 21 12 22 19 14 25
ROOT
ATOM      1  C   UNL     1      24.327  -0.074  53.130  1.00  0.00    +0.079 A 
ATOM      2  C   UNL     1      25.375  -0.902  53.562  1.00  0.00    +0.063 A 
ATOM      3  C   UNL     1      26.688  -0.661  53.153  1.00  0.00    +0.116 A 
ATOM      4  C   UNL     1      26.999   0.399  52.307  1.00  0.00    +0.053 A 
ATOM      5  C   UNL     1      25.978   1.237  51.865  1.00  0.00    +0.090 A 
ATOM      6  C   UNL     1      24.661   0.993  52.283  1.00  0.00    +0.278 A 
ENDROOT
BRANCH   1   7
ATOM      7  C   UNL     1      22.962  -0.374  53.563  1.00  0.00    +0.053 A 
ATOM      8  C   UNL     1      20.706  -0.484  53.424  1.00  0.00    +0.063 A 
ATOM      9  C   UNL     1      21.075  -1.025  54.636  1.00  0.00    +0.030 A 
ATOM     10  N   UNL     1      21.858  -0.105  52.780  1.00  0.00    -0.353 N 
ATOM     11  C   UNL     1      22.487  -0.949  54.730  1.00  0.00    +0.029 A 
ATOM     12  H   UNL     1      21.893   0.267  51.842  1.00  0.00    +0.167 HD
BRANCH   8  13
ATOM     13  C   UNL     1      19.408  -0.331  52.848  1.00  0.00    +0.065 A 
ATOM     14  C   UNL     1      17.776   0.645  51.638  1.00  0.00    +0.012 A 
ATOM     15  C   UNL     1      17.259  -0.508  52.188  1.00  0.00    +0.026 A 
ATOM     16  N   UNL     1      19.081   0.741  52.054  1.00  0.00    -0.357 N 
ATOM     17  C   UNL     1      18.282  -1.130  52.959  1.00  0.00    -0.024 A 
ATOM     18  C   UNL     1      17.155   1.672  50.769  1.00  0.00    +0.064 C 
ATOM     19  H   UNL     1      19.701   1.510  51.840  1.00  0.00    +0.166 HD
ATOM     20  C   UNL     1      18.147  -2.401  53.720  1.00  0.00    +0.047 C 
ENDBRANCH   8  13
ENDBRANCH   1   7
BRANCH   6  21
ATOM     21  N   UNL     1      23.647   1.923  51.833  1.00  0.00    +0.063 N 
ATOM     22  O   UNL     1      23.301   2.803  52.634  1.00  0.00    -0.258 OA
ATOM     23  O   UNL     1      23.165   1.730  50.710  1.00  0.00    -0.258 OA
ENDBRANCH   6  21
BRANCH   3  24
ATOM     24  O   UNL     1      27.652  -1.508  53.613  1.00  0.00    -0.508 OA
ATOM     25  H   UNL     1      27.252  -2.137  54.236  1.00  0.00    +0.293 HD
ENDBRANCH   3  24
TORSDOF 4
ENDMDL
MODEL 6
REMARK VINA RESULT:    -7.404      3.546      4.986
REMARK INTER + INTRA:          -9.543
REMARK INTER:                  -9.074
REMARK INTRA:                  -0.469
REMARK UNBOUND:                -0.624
REMARK SMILES Cc1cc(C)c(-c2ccc(-c3cc(O)ccc3[N+](=O)[O-])[nH]2)[nH]1
REMARK SMILES IDX 11 1 12 2 13 3 15 4 16 5 17 6 10 7 7 8 8 9 21 10 9 11 6 13
REMARK SMILES IDX 2 14 3 15 22 16 4 17 1 18 5 20 18 21 19 22 20 23 14 24
REMARK H PARENT 21 12 22 19 14 25
ROOT
ATOM      1  C   UNL     1      23.192   0.244  53.124  1.00  0.00    +0.079 A 
ATOM      2  C   UNL     1      23.615  -0.534  54.214  1.00  0.00    +0.063 A 
ATOM      3  C   UNL     1      22.695  -1.273  54.961  1.00  0.00    +0.116 A 
ATOM      4  C   UNL     1      21.338  -1.261  54.656  1.00  0.00    +0.053 A 
ATOM      5  C   UNL     1      20.891  -0.498  53.578  1.00  0.00    +0.090 A 
ATOM      6  C   UNL     1      21.821   0.239  52.828  1.00  0.00    +0.278 A 
ENDROOT
BRANCH   1   7
ATOM      7  C   UNL     1      24.183   1.021  52.381  1.00  0.00    +0.053 A 
ATOM      8  C   UNL     1      24.970   2.686  51.065  1.00  0.00    +0.063 A 
ATOM      9  C   UNL     1      26.041   1.894  51.419  1.00  0.00    +0.030 A 
ATOM     10  N   UNL     1      23.855   2.153  51.664  1.00  0.00    -0.353 N 
ATOM     11  C   UNL     1      25.549   0.845  52.235  1.00  0.00    +0.029 A 
ATOM     12  H   UNL     1      22.934   2.566  51.627  1.00  0.00    +0.167 HD
BRANCH   8  13
ATOM     13  C   UNL     1      24.931   3.866  50.262  1.00  0.00    +0.065 A 
ATOM     14  C   UNL     1      25.522   5.930  49.575  1.00  0.00    +0.012 A 
ATOM     15  C   UNL     1      24.491   5.498  48.769  1.00  0.00    +0.026 A 
ATOM     16  N   UNL     1      25.773   4.929  50.481  1.00  0.00    -0.357 N 
ATOM     17  C   UNL     1      24.106   4.196  49.199  1.00  0.00    -0.024 A 
ATOM     18  C   UNL     1      26.286   7.200  49.582  1.00  0.00    +0.064 C 
ATOM     19  H   UNL     1      26.452   4.981  51.227  1.00  0.00    +0.166 HD
ATOM     20  C   UNL     1      23.030   3.363  48.597  1.00  0.00    +0.047 C 
ENDBRANCH   8  13
ENDBRANCH   1   7
BRANCH   6  21
ATOM     21  N   UNL     1      21.310   0.975  51.691  1.00  0.00    +0.063 N 
ATOM     22  O   UNL     1      20.817   2.088  51.922  1.00  0.00    -0.258 OA
ATOM     23  O   UNL     1      21.351   0.411  50.591  1.00  0.00    -0.258 OA
ENDBRANCH   6  21
BRANCH   3  24
ATOM     24  O   UNL     1      23.180  -2.004  56.005  1.00  0.00    -0.508 OA
ATOM     25  H   UNL     1      24.070  -1.684  56.232  1.00  0.00    +0.293 HD
ENDBRANCH   3  24
TORSDOF 4
ENDMDL
MODEL 7
REMARK VINA RESULT:    -7.340      1.855      2.943
REMARK INTER + INTRA:          -9.466
REMARK INTER:                  -9.177
REMARK INTRA:                  -0.289
REMARK UNBOUND:                -0.624
REMARK SMILES Cc1cc(C)c(-c2ccc(-c3cc(O)ccc3[N+](=O)[O-])[nH]2)[nH]1
REMARK SMILES IDX 11 1 12 2 13 3 15 4 16 5 17 6 10 7 7 8 8 9 21 10 9 11 6 13
REMARK SMILES IDX 2 14 3 15 22 16 4 17 1 18 5 20 18 21 19 22 20 23 14 24
REMARK H PARENT 21 12 22 19 14 25
ROOT
ATOM      1  C   UNL     1      26.851   1.305  53.234  1.00  0.00    +0.079 A 
ATOM      2  C   UNL     1      27.836   2.223  53.632  1.00  0.00    +0.063 A 
ATOM      3  C   UNL     1      29.094   1.783  54.048  1.00  0.00    +0.116 A 
ATOM      4  C   UNL     1      29.411   0.429  54.085  1.00  0.00    +0.053 A 
ATOM      5  C   UNL     1      28.452  -0.504  53.694  1.00  0.00    +0.090 A 
ATOM      6  C   UNL     1      27.191  -0.054  53.272  1.00  0.00    +0.278 A 
ENDROOT
BRANCH   1   7
ATOM      7  C   UNL     1      25.539   1.807  52.827  1.00  0.00    +0.053 A 
ATOM      8  C   UNL     1      23.731   2.076  51.493  1.00  0.00    +0.063 A 
ATOM      9  C   UNL     1      23.510   2.801  52.644  1.00  0.00    +0.030 A 
ATOM     10  N   UNL     1      24.956   1.471  51.622  1.00  0.00    -0.353 N 
ATOM     11  C   UNL     1      24.645   2.641  53.477  1.00  0.00    +0.029 A 
ATOM     12  H   UNL     1      25.349   0.827  50.951  1.00  0.00    +0.167 HD
BRANCH   8  13
ATOM     13  C   UNL     1      22.896   1.903  50.346  1.00  0.00    +0.065 A 
ATOM     14  C   UNL     1      22.160   2.246  48.244  1.00  0.00    +0.012 A 
ATOM     15  C   UNL     1      21.329   1.318  48.834  1.00  0.00    +0.026 A 
ATOM     16  N   UNL     1      23.103   2.596  49.178  1.00  0.00    -0.357 N 
ATOM     17  C   UNL     1      21.783   1.098  50.166  1.00  0.00    -0.024 A 
ATOM     18  C   UNL     1      22.143   2.845  46.888  1.00  0.00    +0.064 C 
ATOM     19  H   UNL     1      23.822   3.292  49.042  1.00  0.00    +0.166 HD
ATOM     20  C   UNL     1      21.171   0.168  51.152  1.00  0.00    +0.047 C 
ENDBRANCH   8  13
ENDBRANCH   1   7
BRANCH   6  21
ATOM     21  N   UNL     1      26.250  -1.062  52.831  1.00  0.00    +0.063 N 
ATOM     22  O   UNL     1      25.092  -0.974  53.265  1.00  0.00    -0.258 OA
ATOM     23  O   UNL     1      26.688  -1.963  52.106  1.00  0.00    -0.258 OA
ENDBRANCH   6  21
BRANCH   3  24
ATOM     24  O   UNL     1      29.999   2.733  54.420  1.00  0.00    -0.508 OA
ATOM     25  H   UNL     1      29.836   2.983  55.345  1.00  0.00    +0.293 HD
ENDBRANCH   3  24
TORSDOF 4
ENDMDL
MODEL 8
REMARK VINA RESULT:    -7.339      2.839      4.344
REMARK INTER + INTRA:          -9.464
REMARK INTER:                  -8.855
REMARK INTRA:                  -0.610
REMARK UNBOUND:                -0.624
REMARK SMILES Cc1cc(C)c(-c2ccc(-c3cc(O)ccc3[N+](=O)[O-])[nH]2)[nH]1
REMARK SMILES IDX 11 1 12 2 13 3 15 4 16 5 17 6 10 7 7 8 8 9 21 10 9 11 6 13
REMARK SMILES IDX 2 14 3 15 22 16 4 17 1 18 5 20 18 21 19 22 20 23 14 24
REMARK H PARENT 21 12 22 19 14 25
ROOT
ATOM      1  C   UNL     1      23.263   0.436  53.062  1.00  0.00    +0.079 A 
ATOM      2  C   UNL     1      22.056  -0.112  53.526  1.00  0.00    +0.063 A 
ATOM      3  C   UNL     1      22.047  -1.023  54.584  1.00  0.00    +0.116 A 
ATOM      4  C   UNL     1      23.226  -1.417  55.209  1.00  0.00    +0.053 A 
ATOM      5  C   UNL     1      24.438  -0.887  54.770  1.00  0.00    +0.090 A 
ATOM      6  C   UNL     1      24.439   0.031  53.708  1.00  0.00    +0.278 A 
ENDROOT
BRANCH   1   7
ATOM      7  C   UNL     1      23.231   1.369  51.936  1.00  0.00    +0.053 A 
ATOM      8  C   UNL     1      23.771   3.210  50.736  1.00  0.00    +0.063 A 
ATOM      9  C   UNL     1      22.866   2.482  49.995  1.00  0.00    +0.030 A 
ATOM     10  N   UNL     1      23.992   2.520  51.902  1.00  0.00    -0.353 N 
ATOM     11  C   UNL     1      22.519   1.333  50.749  1.00  0.00    +0.029 A 
ATOM     12  H   UNL     1      24.659   2.790  52.610  1.00  0.00    +0.167 HD
BRANCH   8  13
ATOM     13  C   UNL     1      24.430   4.439  50.425  1.00  0.00    +0.065 A 
ATOM     14  C   UNL     1      24.691   6.671  50.263  1.00  0.00    +0.012 A 
ATOM     15  C   UNL     1      25.829   6.079  49.762  1.00  0.00    +0.026 A 
ATOM     16  N   UNL     1      23.848   5.661  50.656  1.00  0.00    -0.357 N 
ATOM     17  C   UNL     1      25.672   4.666  49.855  1.00  0.00    -0.024 A 
ATOM     18  C   UNL     1      24.315   8.099  50.396  1.00  0.00    +0.064 C 
ATOM     19  H   UNL     1      22.918   5.795  51.026  1.00  0.00    +0.166 HD
ATOM     20  C   UNL     1      26.671   3.649  49.427  1.00  0.00    +0.047 C 
ENDBRANCH   8  13
ENDBRANCH   1   7
BRANCH   6  21
ATOM     21  N   UNL     1      25.720   0.587  53.325  1.00  0.00    +0.063 N 
ATOM     22  O   UNL     1      26.288   0.065  52.356  1.00  0.00    -0.258 OA
ATOM     23  O   UNL     1      26.172   1.498  54.029  1.00  0.00    -0.258 OA
ENDBRANCH   6  21
BRANCH   3  24
ATOM     24  O   UNL     1      20.838  -1.513  54.978  1.00  0.00    -0.508 OA
ATOM     25  H   UNL     1      20.979  -2.273  55.568  1.00  0.00    +0.293 HD
ENDBRANCH   3  24
TORSDOF 4
ENDMDL
MODEL 9
REMARK VINA RESULT:    -7.313      2.777      4.456
REMARK INTER + INTRA:          -9.434
REMARK INTER:                  -9.314
REMARK INTRA:                  -0.120
REMARK UNBOUND:                -0.624
REMARK SMILES Cc1cc(C)c(-c2ccc(-c3cc(O)ccc3[N+](=O)[O-])[nH]2)[nH]1
REMARK SMILES IDX 11 1 12 2 13 3 15 4 16 5 17 6 10 7 7 8 8 9 21 10 9 11 6 13
REMARK SMILES IDX 2 14 3 15 22 16 4 17 1 18 5 20 18 21 19 22 20 23 14 24
REMARK H PARENT 21 12 22 19 14 25
ROOT
ATOM      1  C   UNL     1      26.465   1.206  53.218  1.00  0.00    +0.079 A 
ATOM      2  C   UNL     1      27.371   2.229  52.892  1.00  0.00    +0.063 A 
ATOM      3  C   UNL     1      28.646   2.259  53.460  1.00  0.00    +0.116 A 
ATOM      4  C   UNL     1      29.058   1.286  54.364  1.00  0.00    +0.053 A 
ATOM      5  C   UNL     1      28.180   0.258  54.703  1.00  0.00    +0.090 A 
ATOM      6  C   UNL     1      26.901   0.231  54.125  1.00  0.00    +0.278 A 
ENDROOT
BRANCH   1   7
ATOM      7  C   UNL     1      25.132   1.224  52.618  1.00  0.00    +0.053 A 
ATOM      8  C   UNL     1      22.924   0.763  52.426  1.00  0.00    +0.063 A 
ATOM      9  C   UNL     1      23.282   1.541  51.346  1.00  0.00    +0.030 A 
ATOM     10  N   UNL     1      24.049   0.589  53.193  1.00  0.00    -0.353 N 
ATOM     11  C   UNL     1      24.666   1.822  51.459  1.00  0.00    +0.029 A 
ATOM     12  H   UNL     1      24.068   0.110  54.081  1.00  0.00    +0.167 HD
BRANCH   8  13
ATOM     13  C   UNL     1      21.651   0.221  52.782  1.00  0.00    +0.065 A 
ATOM     14  C   UNL     1      19.436  -0.156  52.614  1.00  0.00    +0.012 A 
ATOM     15  C   UNL     1      19.893  -0.828  53.727  1.00  0.00    +0.026 A 
ATOM     16  N   UNL     1      20.515   0.481  52.054  1.00  0.00    -0.357 N 
ATOM     17  C   UNL     1      21.292  -0.591  53.845  1.00  0.00    -0.024 A 
ATOM     18  C   UNL     1      18.076  -0.047  52.033  1.00  0.00    +0.064 C 
ATOM     19  H   UNL     1      20.475   1.086  51.246  1.00  0.00    +0.166 HD
ATOM     20  C   UNL     1      22.180  -1.134  54.909  1.00  0.00    +0.047 C 
ENDBRANCH   8  13
ENDBRANCH   1   7
BRANCH   6  21
ATOM     21  N   UNL     1      26.048  -0.884  54.475  1.00  0.00    +0.063 N 
ATOM     22  O   UNL     1      25.891  -1.761  53.613  1.00  0.00    -0.258 OA
ATOM     23  O   UNL     1      25.496  -0.846  55.582  1.00  0.00    -0.258 OA
ENDBRANCH   6  21
BRANCH   3  24
ATOM     24  O   UNL     1      29.469   3.283  53.096  1.00  0.00    -0.508 OA
ATOM     25  H   UNL     1      29.509   3.932  53.819  1.00  0.00    +0.293 HD
ENDBRANCH   3  24
TORSDOF 4
ENDMDL
