REMARK SMILES O=[N+]([O-])c1cc(-c2cccc(Cl)c2)ccc1O
REMARK SMILES IDX 4 1 5 2 6 3 14 4 15 5 16 6 2 7 1 8 3 9 17 10 7 12 8 13 13 14
REMARK SMILES IDX 9 15 11 16 10 17 12 18
REMARK H PARENT 17 11
ROOT
ATOM      1  C   UNL     1      -2.408   0.767  -0.048  1.00  0.00    +0.311 A 
ATOM      2  C   UNL     1      -1.044   0.829  -0.362  1.00  0.00    +0.098 A 
ATOM      3  C   UNL     1      -0.185  -0.201   0.049  1.00  0.00    -0.011 A 
ATOM      4  C   UNL     1      -0.737  -1.273   0.777  1.00  0.00    +0.013 A 
ATOM      5  C   UNL     1      -2.102  -1.320   1.094  1.00  0.00    +0.054 A 
ATOM      6  C   UNL     1      -2.945  -0.292   0.682  1.00  0.00    +0.194 A 
ENDROOT
BRANCH   1   7
ATOM      7  N   UNL     1      -3.260   1.844  -0.505  1.00  0.00    +0.066 N 
ATOM      8  O   UNL     1      -2.999   2.980  -0.084  1.00  0.00    -0.258 OA
ATOM      9  O   UNL     1      -4.143   1.565  -1.328  1.00  0.00    -0.258 OA
ENDBRANCH   1   7
BRANCH   6  10
ATOM     10  O   UNL     1      -4.266  -0.319   1.015  1.00  0.00    -0.502 OA
ATOM     11  H   UNL     1      -4.478  -1.151   1.471  1.00  0.00    +0.293 HD
ENDBRANCH   6  10
BRANCH   3  12
ATOM     12  C   UNL     1       1.251  -0.163  -0.270  1.00  0.00    -0.017 A 
ATOM     13  C   UNL     1       1.875  -1.239  -0.925  1.00  0.00    +0.009 A 
ATOM     14  C   UNL     1       2.038   0.950   0.070  1.00  0.00    +0.029 A 
ATOM     15  C   UNL     1       3.239  -1.207  -1.231  1.00  0.00    +0.002 A 
ATOM     16  C   UNL     1       3.400   0.979  -0.236  1.00  0.00    +0.041 A 
ATOM     17  C   UNL     1       4.003  -0.095  -0.885  1.00  0.00    +0.020 A 
ATOM     18 Cl   UNL     1       4.342   2.353   0.195  1.00  0.00    -0.084 Cl
ENDBRANCH   3  12
TORSDOF 3
