MODEL 1
REMARK VINA RESULT:    -7.355      0.000      0.000
REMARK INTER + INTRA:          -9.339
REMARK INTER:                  -8.860
REMARK INTRA:                  -0.479
REMARK UNBOUND:                -0.479
REMARK SMILES Cc1cc(C=C(N)C(C#N)=C(C#N)C#N)[nH]c1N1CCOCC1
REMARK SMILES IDX 5 1 6 2 4 3 2 4 3 5 17 6 16 7 1 8 18 10 19 11 23 12 20 13
REMARK SMILES IDX 22 14 21 15 7 16 8 19 9 20 11 21 10 22 12 23 14 24 13 25
REMARK SMILES IDX 15 26
REMARK H PARENT 16 9 7 17 7 18
ROOT
ATOM      1  C   UNL     1      24.813   1.761  51.394  1.00  0.00    +0.053 C 
ATOM      2  C   UNL     1      24.649   1.777  52.736  1.00  0.00    +0.054 C 
ENDROOT
BRANCH   1   3
ATOM      3  C   UNL     1      25.362   2.845  50.664  1.00  0.00    +0.042 A 
ATOM      4  C   UNL     1      26.510   4.393  49.457  1.00  0.00    -0.008 A 
ATOM      5  C   UNL     1      26.533   3.062  49.971  1.00  0.00    +0.033 A 
ATOM      6  C   UNL     1      25.311   4.964  49.862  1.00  0.00    +0.109 A 
ATOM      7  N   UNL     1      24.646   4.014  50.604  1.00  0.00    -0.342 N 
ATOM      8  C   UNL     1      27.593   4.992  48.630  1.00  0.00    +0.048 C 
ATOM      9  H   UNL     1      23.755   4.174  51.049  1.00  0.00    +0.168 HD
BRANCH   6  10
ATOM     10  N   UNL     1      24.757   6.196  49.691  1.00  0.00    -0.353 N 
ATOM     11  C   UNL     1      24.536   7.125  50.814  1.00  0.00    +0.146 C 
ATOM     12  C   UNL     1      24.152   6.605  48.415  1.00  0.00    +0.146 C 
ATOM     13  C   UNL     1      23.267   7.961  50.580  1.00  0.00    +0.181 C 
ATOM     14  C   UNL     1      24.079   8.139  48.334  1.00  0.00    +0.181 C 
ATOM     15  O   UNL     1      23.304   8.744  49.379  1.00  0.00    -0.378 OA
ENDBRANCH   6  10
ENDBRANCH   1   3
BRANCH   2  16
ATOM     16  N   UNL     1      25.100   2.793  53.576  1.00  0.00    -0.398 N 
ATOM     17  H   UNL     1      24.332   3.427  53.815  1.00  0.00    +0.156 HD
ATOM     18  H   UNL     1      25.428   2.426  54.472  1.00  0.00    +0.156 HD
ENDBRANCH   2  16
BRANCH   2  19
ATOM     19  C   UNL     1      24.059   0.597  53.403  1.00  0.00    +0.103 C 
ATOM     20  C   UNL     1      24.990  -0.337  53.966  1.00  0.00    +0.103 C 
ATOM     21  C   UNL     1      22.728   0.385  53.518  1.00  0.00    +0.149 C 
ATOM     22  N   UNL     1      25.748  -1.105  54.392  1.00  0.00    -0.192 NA
ATOM     23  C   UNL     1      22.207  -0.759  54.189  1.00  0.00    +0.112 C 
ATOM     24  C   UNL     1      21.785   1.285  52.951  1.00  0.00    +0.112 C 
ATOM     25  N   UNL     1      21.781  -1.692  54.728  1.00  0.00    -0.192 NA
ATOM     26  N   UNL     1      21.053   2.050  52.477  1.00  0.00    -0.192 NA
ENDBRANCH   2  19
TORSDOF 4
ENDMDL
MODEL 2
REMARK VINA RESULT:    -7.147      4.143      6.359
REMARK INTER + INTRA:          -9.089
REMARK INTER:                  -8.859
REMARK INTRA:                  -0.230
REMARK UNBOUND:                -0.479
REMARK SMILES Cc1cc(C=C(N)C(C#N)=C(C#N)C#N)[nH]c1N1CCOCC1
REMARK SMILES IDX 5 1 6 2 4 3 2 4 3 5 17 6 16 7 1 8 18 10 19 11 23 12 20 13
REMARK SMILES IDX 22 14 21 15 7 16 8 19 9 20 11 21 10 22 12 23 14 24 13 25
REMARK SMILES IDX 15 26
REMARK H PARENT 16 9 7 17 7 18
ROOT
ATOM      1  C   UNL     1      24.882   0.369  52.866  1.00  0.00    +0.053 C 
ATOM      2  C   UNL     1      26.125   0.648  52.412  1.00  0.00    +0.054 C 
ENDROOT
BRANCH   1   3
ATOM      3  C   UNL     1      23.748   1.166  52.570  1.00  0.00    +0.042 A 
ATOM      4  C   UNL     1      22.105   2.697  52.214  1.00  0.00    -0.008 A 
ATOM      5  C   UNL     1      23.450   2.508  52.652  1.00  0.00    +0.033 A 
ATOM      6  C   UNL     1      21.609   1.445  51.877  1.00  0.00    +0.109 A 
ATOM      7  N   UNL     1      22.615   0.537  52.118  1.00  0.00    -0.342 N 
ATOM      8  C   UNL     1      21.425   4.018  52.135  1.00  0.00    +0.048 C 
ATOM      9  H   UNL     1      22.515  -0.458  51.988  1.00  0.00    +0.168 HD
BRANCH   6  10
ATOM     10  N   UNL     1      20.401   1.008  51.425  1.00  0.00    -0.353 N 
ATOM     11  C   UNL     1      19.984   1.157  50.018  1.00  0.00    +0.146 C 
ATOM     12  C   UNL     1      19.348   0.548  52.341  1.00  0.00    +0.146 C 
ATOM     13  C   UNL     1      18.467   1.386  49.927  1.00  0.00    +0.181 C 
ATOM     14  C   UNL     1      18.340  -0.337  51.587  1.00  0.00    +0.181 C 
ATOM     15  O   UNL     1      17.686   0.325  50.494  1.00  0.00    -0.378 OA
ENDBRANCH   6  10
ENDBRANCH   1   3
BRANCH   2  16
ATOM     16  N   UNL     1      26.427   1.667  51.513  1.00  0.00    -0.398 N 
ATOM     17  H   UNL     1      25.800   2.465  51.652  1.00  0.00    +0.156 HD
ATOM     18  H   UNL     1      27.366   2.041  51.665  1.00  0.00    +0.156 HD
ENDBRANCH   2  16
BRANCH   2  19
ATOM     19  C   UNL     1      27.244  -0.243  52.785  1.00  0.00    +0.103 C 
ATOM     20  C   UNL     1      27.098  -1.622  52.420  1.00  0.00    +0.103 C 
ATOM     21  C   UNL     1      28.366   0.180  53.413  1.00  0.00    +0.149 C 
ATOM     22  N   UNL     1      26.960  -2.741  52.151  1.00  0.00    -0.192 NA
ATOM     23  C   UNL     1      29.427  -0.714  53.733  1.00  0.00    +0.112 C 
ATOM     24  C   UNL     1      28.526   1.537  53.803  1.00  0.00    +0.112 C 
ATOM     25  N   UNL     1      30.289  -1.441  54.002  1.00  0.00    -0.192 NA
ATOM     26  N   UNL     1      28.615   2.656  54.098  1.00  0.00    -0.192 NA
ENDBRANCH   2  19
TORSDOF 4
ENDMDL
MODEL 3
REMARK VINA RESULT:    -6.988      0.771      2.395
REMARK INTER + INTRA:          -8.898
REMARK INTER:                  -8.481
REMARK INTRA:                  -0.416
REMARK UNBOUND:                -0.479
REMARK SMILES Cc1cc(C=C(N)C(C#N)=C(C#N)C#N)[nH]c1N1CCOCC1
REMARK SMILES IDX 5 1 6 2 4 3 2 4 3 5 17 6 16 7 1 8 18 10 19 11 23 12 20 13
REMARK SMILES IDX 22 14 21 15 7 16 8 19 9 20 11 21 10 22 12 23 14 24 13 25
REMARK SMILES IDX 15 26
REMARK H PARENT 16 9 7 17 7 18
ROOT
ATOM      1  C   UNL     1      24.069   1.961  51.276  1.00  0.00    +0.053 C 
ATOM      2  C   UNL     1      24.042   1.863  52.625  1.00  0.00    +0.054 C 
ENDROOT
BRANCH   1   3
ATOM      3  C   UNL     1      24.886   2.887  50.580  1.00  0.00    +0.042 A 
ATOM      4  C   UNL     1      26.424   4.133  49.461  1.00  0.00    -0.008 A 
ATOM      5  C   UNL     1      26.141   2.848  50.012  1.00  0.00    +0.033 A 
ATOM      6  C   UNL     1      25.322   4.936  49.717  1.00  0.00    +0.109 A 
ATOM      7  N   UNL     1      24.416   4.165  50.408  1.00  0.00    -0.342 N 
ATOM      8  C   UNL     1      27.679   4.478  48.739  1.00  0.00    +0.048 C 
ATOM      9  H   UNL     1      23.532   4.510  50.750  1.00  0.00    +0.168 HD
BRANCH   6  10
ATOM     10  N   UNL     1      25.033   6.240  49.451  1.00  0.00    -0.353 N 
ATOM     11  C   UNL     1      24.229   6.649  48.285  1.00  0.00    +0.146 C 
ATOM     12  C   UNL     1      25.671   7.342  50.185  1.00  0.00    +0.146 C 
ATOM     13  C   UNL     1      24.711   8.006  47.747  1.00  0.00    +0.181 C 
ATOM     14  C   UNL     1      24.824   8.621  50.060  1.00  0.00    +0.181 C 
ATOM     15  O   UNL     1      24.638   9.068  48.709  1.00  0.00    -0.378 OA
ENDBRANCH   6  10
ENDBRANCH   1   3
BRANCH   2  16
ATOM     16  N   UNL     1      24.885   2.563  53.485  1.00  0.00    -0.398 N 
ATOM     17  H   UNL     1      24.771   2.229  54.447  1.00  0.00    +0.156 HD
ATOM     18  H   UNL     1      25.870   2.401  53.265  1.00  0.00    +0.156 HD
ENDBRANCH   2  16
BRANCH   2  19
ATOM     19  C   UNL     1      23.149   0.870  53.256  1.00  0.00    +0.103 C 
ATOM     20  C   UNL     1      21.742   1.115  53.122  1.00  0.00    +0.103 C 
ATOM     21  C   UNL     1      23.588  -0.230  53.910  1.00  0.00    +0.149 C 
ATOM     22  N   UNL     1      20.607   1.337  53.038  1.00  0.00    -0.192 NA
ATOM     23  C   UNL     1      22.686  -1.170  54.485  1.00  0.00    +0.112 C 
ATOM     24  C   UNL     1      24.977  -0.486  54.074  1.00  0.00    +0.112 C 
ATOM     25  N   UNL     1      21.953  -1.933  54.960  1.00  0.00    -0.192 NA
ATOM     26  N   UNL     1      26.120  -0.656  54.178  1.00  0.00    -0.192 NA
ENDBRANCH   2  19
TORSDOF 4
ENDMDL
MODEL 4
REMARK VINA RESULT:    -6.987      4.192      6.638
REMARK INTER + INTRA:          -8.896
REMARK INTER:                  -8.470
REMARK INTRA:                  -0.426
REMARK UNBOUND:                -0.479
REMARK SMILES Cc1cc(C=C(N)C(C#N)=C(C#N)C#N)[nH]c1N1CCOCC1
REMARK SMILES IDX 5 1 6 2 4 3 2 4 3 5 17 6 16 7 1 8 18 10 19 11 23 12 20 13
REMARK SMILES IDX 22 14 21 15 7 16 8 19 9 20 11 21 10 22 12 23 14 24 13 25
REMARK SMILES IDX 15 26
REMARK H PARENT 16 9 7 17 7 18
ROOT
ATOM      1  C   UNL     1      25.372   1.210  53.466  1.00  0.00    +0.053 C 
ATOM      2  C   UNL     1      26.477   1.240  52.686  1.00  0.00    +0.054 C 
ENDROOT
BRANCH   1   3
ATOM      3  C   UNL     1      24.106   1.683  53.040  1.00  0.00    +0.042 A 
ATOM      4  C   UNL     1      22.221   2.735  52.325  1.00  0.00    -0.008 A 
ATOM      5  C   UNL     1      23.617   2.885  52.579  1.00  0.00    +0.033 A 
ATOM      6  C   UNL     1      21.888   1.427  52.649  1.00  0.00    +0.109 A 
ATOM      7  N   UNL     1      23.041   0.819  53.094  1.00  0.00    -0.342 N 
ATOM      8  C   UNL     1      21.344   3.812  51.792  1.00  0.00    +0.048 C 
ATOM      9  H   UNL     1      23.079  -0.132  53.426  1.00  0.00    +0.168 HD
BRANCH   6  10
ATOM     10  N   UNL     1      20.720   0.727  52.632  1.00  0.00    -0.353 N 
ATOM     11  C   UNL     1      20.151   0.112  53.845  1.00  0.00    +0.146 C 
ATOM     12  C   UNL     1      20.054   0.359  51.375  1.00  0.00    +0.146 C 
ATOM     13  C   UNL     1      19.420  -1.195  53.494  1.00  0.00    +0.181 C 
ATOM     14  C   UNL     1      18.569   0.052  51.634  1.00  0.00    +0.181 C 
ATOM     15  O   UNL     1      18.347  -1.025  52.558  1.00  0.00    -0.378 OA
ENDBRANCH   6  10
ENDBRANCH   1   3
BRANCH   2  16
ATOM     16  N   UNL     1      26.488   1.622  51.346  1.00  0.00    -0.398 N 
ATOM     17  H   UNL     1      26.274   0.821  50.744  1.00  0.00    +0.156 HD
ATOM     18  H   UNL     1      25.758   2.307  51.141  1.00  0.00    +0.156 HD
ENDBRANCH   2  16
BRANCH   2  19
ATOM     19  C   UNL     1      27.754   0.730  53.227  1.00  0.00    +0.103 C 
ATOM     20  C   UNL     1      28.604   1.701  53.852  1.00  0.00    +0.103 C 
ATOM     21  C   UNL     1      28.127  -0.569  53.178  1.00  0.00    +0.149 C 
ATOM     22  N   UNL     1      29.301   2.497  54.327  1.00  0.00    -0.192 NA
ATOM     23  C   UNL     1      29.361  -1.016  53.732  1.00  0.00    +0.112 C 
ATOM     24  C   UNL     1      27.312  -1.548  52.546  1.00  0.00    +0.112 C 
ATOM     25  N   UNL     1      30.368  -1.381  54.176  1.00  0.00    -0.192 NA
ATOM     26  N   UNL     1      26.612  -2.312  52.025  1.00  0.00    -0.192 NA
ENDBRANCH   2  19
TORSDOF 4
ENDMDL
MODEL 5
REMARK VINA RESULT:    -6.892      2.315      3.859
REMARK INTER + INTRA:          -8.782
REMARK INTER:                  -8.278
REMARK INTRA:                  -0.504
REMARK UNBOUND:                -0.479
REMARK SMILES Cc1cc(C=C(N)C(C#N)=C(C#N)C#N)[nH]c1N1CCOCC1
REMARK SMILES IDX 5 1 6 2 4 3 2 4 3 5 17 6 16 7 1 8 18 10 19 11 23 12 20 13
REMARK SMILES IDX 22 14 21 15 7 16 8 19 9 20 11 21 10 22 12 23 14 24 13 25
REMARK SMILES IDX 15 26
REMARK H PARENT 16 9 7 17 7 18
ROOT
ATOM      1  C   UNL     1      25.136   2.837  50.874  1.00  0.00    +0.053 C 
ATOM      2  C   UNL     1      24.674   2.839  52.144  1.00  0.00    +0.054 C 
ENDROOT
BRANCH   1   3
ATOM      3  C   UNL     1      25.210   4.004  50.071  1.00  0.00    +0.042 A 
ATOM      4  C   UNL     1      25.004   5.834  48.737  1.00  0.00    -0.008 A 
ATOM      5  C   UNL     1      24.298   4.778  49.388  1.00  0.00    +0.033 A 
ATOM      6  C   UNL     1      26.349   5.669  49.040  1.00  0.00    +0.109 A 
ATOM      7  N   UNL     1      26.447   4.547  49.832  1.00  0.00    -0.342 N 
ATOM      8  C   UNL     1      24.358   6.895  47.918  1.00  0.00    +0.048 C 
ATOM      9  H   UNL     1      27.321   4.178  50.173  1.00  0.00    +0.168 HD
BRANCH   6  10
ATOM     10  N   UNL     1      27.476   6.348  48.690  1.00  0.00    -0.353 N 
ATOM     11  C   UNL     1      28.673   5.670  48.160  1.00  0.00    +0.146 C 
ATOM     12  C   UNL     1      27.656   7.772  49.008  1.00  0.00    +0.146 C 
ATOM     13  C   UNL     1      29.950   6.398  48.615  1.00  0.00    +0.181 C 
ATOM     14  C   UNL     1      28.725   8.388  48.089  1.00  0.00    +0.181 C 
ATOM     15  O   UNL     1      30.015   7.768  48.196  1.00  0.00    -0.378 OA
ENDBRANCH   6  10
ENDBRANCH   1   3
BRANCH   2  16
ATOM     16  N   UNL     1      24.329   3.984  52.859  1.00  0.00    -0.398 N 
ATOM     17  H   UNL     1      24.741   3.958  53.796  1.00  0.00    +0.156 HD
ATOM     18  H   UNL     1      24.709   4.829  52.427  1.00  0.00    +0.156 HD
ENDBRANCH   2  16
BRANCH   2  19
ATOM     19  C   UNL     1      24.629   1.567  52.895  1.00  0.00    +0.103 C 
ATOM     20  C   UNL     1      23.411   0.818  52.791  1.00  0.00    +0.103 C 
ATOM     21  C   UNL     1      25.660   1.089  53.630  1.00  0.00    +0.149 C 
ATOM     22  N   UNL     1      22.411   0.233  52.728  1.00  0.00    -0.192 NA
ATOM     23  C   UNL     1      25.576  -0.154  54.320  1.00  0.00    +0.112 C 
ATOM     24  C   UNL     1      26.871   1.822  53.766  1.00  0.00    +0.112 C 
ATOM     25  N   UNL     1      25.507  -1.162  54.889  1.00  0.00    -0.192 NA
ATOM     26  N   UNL     1      27.842   2.452  53.844  1.00  0.00    -0.192 NA
ENDBRANCH   2  19
TORSDOF 4
ENDMDL
MODEL 6
REMARK VINA RESULT:    -6.830      2.222      3.612
REMARK INTER + INTRA:          -8.707
REMARK INTER:                  -8.248
REMARK INTRA:                  -0.460
REMARK UNBOUND:                -0.479
REMARK SMILES Cc1cc(C=C(N)C(C#N)=C(C#N)C#N)[nH]c1N1CCOCC1
REMARK SMILES IDX 5 1 6 2 4 3 2 4 3 5 17 6 16 7 1 8 18 10 19 11 23 12 20 13
REMARK SMILES IDX 22 14 21 15 7 16 8 19 9 20 11 21 10 22 12 23 14 24 13 25
REMARK SMILES IDX 15 26
REMARK H PARENT 16 9 7 17 7 18
ROOT
ATOM      1  C   UNL     1      25.106   3.064  50.761  1.00  0.00    +0.053 C 
ATOM      2  C   UNL     1      24.711   2.990  52.052  1.00  0.00    +0.054 C 
ENDROOT
BRANCH   1   3
ATOM      3  C   UNL     1      25.052   4.257  49.998  1.00  0.00    +0.042 A 
ATOM      4  C   UNL     1      24.690   6.046  48.641  1.00  0.00    -0.008 A 
ATOM      5  C   UNL     1      24.171   4.793  49.084  1.00  0.00    +0.033 A 
ATOM      6  C   UNL     1      25.896   6.241  49.300  1.00  0.00    +0.109 A 
ATOM      7  N   UNL     1      26.098   5.139  50.100  1.00  0.00    -0.342 N 
ATOM      8  C   UNL     1      24.008   6.940  47.666  1.00  0.00    +0.048 C 
ATOM      9  H   UNL     1      26.919   5.004  50.670  1.00  0.00    +0.168 HD
BRANCH   6  10
ATOM     10  N   UNL     1      26.832   7.229  49.265  1.00  0.00    -0.353 N 
ATOM     11  C   UNL     1      26.659   8.506  49.981  1.00  0.00    +0.146 C 
ATOM     12  C   UNL     1      27.980   7.179  48.348  1.00  0.00    +0.146 C 
ATOM     13  C   UNL     1      27.309   9.657  49.196  1.00  0.00    +0.181 C 
ATOM     14  C   UNL     1      29.101   8.104  48.854  1.00  0.00    +0.181 C 
ATOM     15  O   UNL     1      28.714   9.482  48.969  1.00  0.00    -0.378 OA
ENDBRANCH   6  10
ENDBRANCH   1   3
BRANCH   2  16
ATOM     16  N   UNL     1      24.320   4.082  52.823  1.00  0.00    -0.398 N 
ATOM     17  H   UNL     1      23.300   4.181  52.812  1.00  0.00    +0.156 HD
ATOM     18  H   UNL     1      24.562   3.957  53.808  1.00  0.00    +0.156 HD
ENDBRANCH   2  16
BRANCH   2  19
ATOM     19  C   UNL     1      24.799   1.695  52.759  1.00  0.00    +0.103 C 
ATOM     20  C   UNL     1      23.556   1.017  52.985  1.00  0.00    +0.103 C 
ATOM     21  C   UNL     1      25.963   1.136  53.165  1.00  0.00    +0.149 C 
ATOM     22  N   UNL     1      22.544   0.489  53.193  1.00  0.00    -0.192 NA
ATOM     23  C   UNL     1      25.998  -0.126  53.825  1.00  0.00    +0.112 C 
ATOM     24  C   UNL     1      27.206   1.797  52.971  1.00  0.00    +0.112 C 
ATOM     25  N   UNL     1      26.028  -1.149  54.369  1.00  0.00    -0.192 NA
ATOM     26  N   UNL     1      28.197   2.371  52.786  1.00  0.00    -0.192 NA
ENDBRANCH   2  19
TORSDOF 4
ENDMDL
MODEL 7
REMARK VINA RESULT:    -6.789      1.981      2.847
REMARK INTER + INTRA:          -8.658
REMARK INTER:                  -8.065
REMARK INTRA:                  -0.592
REMARK UNBOUND:                -0.479
REMARK SMILES Cc1cc(C=C(N)C(C#N)=C(C#N)C#N)[nH]c1N1CCOCC1
REMARK SMILES IDX 5 1 6 2 4 3 2 4 3 5 17 6 16 7 1 8 18 10 19 11 23 12 20 13
REMARK SMILES IDX 22 14 21 15 7 16 8 19 9 20 11 21 10 22 12 23 14 24 13 25
REMARK SMILES IDX 15 26
REMARK H PARENT 16 9 7 17 7 18
ROOT
ATOM      1  C   UNL     1      25.479   3.037  51.088  1.00  0.00    +0.053 C 
ATOM      2  C   UNL     1      25.000   2.902  52.345  1.00  0.00    +0.054 C 
ENDROOT
BRANCH   1   3
ATOM      3  C   UNL     1      25.132   4.115  50.235  1.00  0.00    +0.042 A 
ATOM      4  C   UNL     1      24.338   5.646  48.753  1.00  0.00    -0.008 A 
ATOM      5  C   UNL     1      24.138   4.348  49.310  1.00  0.00    +0.033 A 
ATOM      6  C   UNL     1      25.470   6.177  49.357  1.00  0.00    +0.109 A 
ATOM      7  N   UNL     1      25.939   5.225  50.234  1.00  0.00    -0.342 N 
ATOM      8  C   UNL     1      23.451   6.268  47.733  1.00  0.00    +0.048 C 
ATOM      9  H   UNL     1      26.775   5.337  50.786  1.00  0.00    +0.168 HD
BRANCH   6  10
ATOM     10  N   UNL     1      26.143   7.352  49.214  1.00  0.00    -0.353 N 
ATOM     11  C   UNL     1      27.477   7.427  48.590  1.00  0.00    +0.146 C 
ATOM     12  C   UNL     1      25.683   8.593  49.853  1.00  0.00    +0.146 C 
ATOM     13  C   UNL     1      28.316   8.535  49.246  1.00  0.00    +0.181 C 
ATOM     14  C   UNL     1      26.292   9.812  49.140  1.00  0.00    +0.181 C 
ATOM     15  O   UNL     1      27.727   9.840  49.152  1.00  0.00    -0.378 OA
ENDBRANCH   6  10
ENDBRANCH   1   3
BRANCH   2  16
ATOM     16  N   UNL     1      24.213   3.849  52.997  1.00  0.00    -0.398 N 
ATOM     17  H   UNL     1      24.796   4.610  53.359  1.00  0.00    +0.156 HD
ATOM     18  H   UNL     1      23.556   4.301  52.358  1.00  0.00    +0.156 HD
ENDBRANCH   2  16
BRANCH   2  19
ATOM     19  C   UNL     1      25.416   1.736  53.152  1.00  0.00    +0.103 C 
ATOM     20  C   UNL     1      26.709   1.827  53.767  1.00  0.00    +0.103 C 
ATOM     21  C   UNL     1      24.647   0.640  53.345  1.00  0.00    +0.149 C 
ATOM     22  N   UNL     1      27.768   1.893  54.234  1.00  0.00    -0.192 NA
ATOM     23  C   UNL     1      25.085  -0.451  54.149  1.00  0.00    +0.112 C 
ATOM     24  C   UNL     1      23.371   0.517  52.731  1.00  0.00    +0.112 C 
ATOM     25  N   UNL     1      25.442  -1.343  54.797  1.00  0.00    -0.192 NA
ATOM     26  N   UNL     1      22.334   0.463  52.213  1.00  0.00    -0.192 NA
ENDBRANCH   2  19
TORSDOF 4
ENDMDL
MODEL 8
REMARK VINA RESULT:    -6.673      3.832      7.431
REMARK INTER + INTRA:          -8.517
REMARK INTER:                  -8.008
REMARK INTRA:                  -0.509
REMARK UNBOUND:                -0.479
REMARK SMILES Cc1cc(C=C(N)C(C#N)=C(C#N)C#N)[nH]c1N1CCOCC1
REMARK SMILES IDX 5 1 6 2 4 3 2 4 3 5 17 6 16 7 1 8 18 10 19 11 23 12 20 13
REMARK SMILES IDX 22 14 21 15 7 16 8 19 9 20 11 21 10 22 12 23 14 24 13 25
REMARK SMILES IDX 15 26
REMARK H PARENT 16 9 7 17 7 18
ROOT
ATOM      1  C   UNL     1      22.321   2.742  52.027  1.00  0.00    +0.053 C 
ATOM      2  C   UNL     1      21.836   2.686  50.766  1.00  0.00    +0.054 C 
ENDROOT
BRANCH   1   3
ATOM      3  C   UNL     1      22.757   1.600  52.745  1.00  0.00    +0.042 A 
ATOM      4  C   UNL     1      23.139  -0.267  53.985  1.00  0.00    -0.008 A 
ATOM      5  C   UNL     1      22.137   0.620  53.489  1.00  0.00    +0.033 A 
ATOM      6  C   UNL     1      24.362   0.206  53.529  1.00  0.00    +0.109 A 
ATOM      7  N   UNL     1      24.104   1.343  52.798  1.00  0.00    -0.342 N 
ATOM      8  C   UNL     1      22.858  -1.470  54.814  1.00  0.00    +0.048 C 
ATOM      9  H   UNL     1      24.821   1.911  52.373  1.00  0.00    +0.168 HD
BRANCH   6  10
ATOM     10  N   UNL     1      25.647  -0.211  53.697  1.00  0.00    -0.353 N 
ATOM     11  C   UNL     1      26.367  -0.053  54.974  1.00  0.00    +0.146 C 
ATOM     12  C   UNL     1      26.474  -0.655  52.566  1.00  0.00    +0.146 C 
ATOM     13  C   UNL     1      27.863   0.201  54.721  1.00  0.00    +0.181 C 
ATOM     14  C   UNL     1      27.640  -1.522  53.072  1.00  0.00    +0.181 C 
ATOM     15  O   UNL     1      28.513  -0.848  53.991  1.00  0.00    -0.378 OA
ENDBRANCH   6  10
ENDBRANCH   1   3
BRANCH   2  16
ATOM     16  N   UNL     1      21.812   1.537  49.979  1.00  0.00    -0.398 N 
ATOM     17  H   UNL     1      21.426   1.745  49.053  1.00  0.00    +0.156 HD
ATOM     18  H   UNL     1      22.753   1.182  49.798  1.00  0.00    +0.156 HD
ENDBRANCH   2  16
BRANCH   2  19
ATOM     19  C   UNL     1      21.400   3.934  50.106  1.00  0.00    +0.103 C 
ATOM     20  C   UNL     1      22.335   4.519  49.189  1.00  0.00    +0.103 C 
ATOM     21  C   UNL     1      20.193   4.511  50.308  1.00  0.00    +0.149 C 
ATOM     22  N   UNL     1      23.107   5.005  48.473  1.00  0.00    -0.192 NA
ATOM     23  C   UNL     1      19.811   5.705  49.632  1.00  0.00    +0.112 C 
ATOM     24  C   UNL     1      19.257   3.963  51.227  1.00  0.00    +0.112 C 
ATOM     25  N   UNL     1      19.500   6.681  49.088  1.00  0.00    -0.192 NA
ATOM     26  N   UNL     1      18.523   3.475  51.982  1.00  0.00    -0.192 NA
ENDBRANCH   2  19
TORSDOF 4
ENDMDL
MODEL 9
REMARK VINA RESULT:    -6.666      1.848      2.763
REMARK INTER + INTRA:          -8.509
REMARK INTER:                  -8.095
REMARK INTRA:                  -0.414
REMARK UNBOUND:                -0.479
REMARK SMILES Cc1cc(C=C(N)C(C#N)=C(C#N)C#N)[nH]c1N1CCOCC1
REMARK SMILES IDX 5 1 6 2 4 3 2 4 3 5 17 6 16 7 1 8 18 10 19 11 23 12 20 13
REMARK SMILES IDX 22 14 21 15 7 16 8 19 9 20 11 21 10 22 12 23 14 24 13 25
REMARK SMILES IDX 15 26
REMARK H PARENT 16 9 7 17 7 18
ROOT
ATOM      1  C   UNL     1      23.428   3.091  52.777  1.00  0.00    +0.053 C 
ATOM      2  C   UNL     1      23.331   1.853  52.241  1.00  0.00    +0.054 C 
ENDROOT
BRANCH   1   3
ATOM      3  C   UNL     1      23.490   4.274  51.998  1.00  0.00    +0.042 A 
ATOM      4  C   UNL     1      23.267   6.204  50.817  1.00  0.00    -0.008 A 
ATOM      5  C   UNL     1      22.600   5.274  51.670  1.00  0.00    +0.033 A 
ATOM      6  C   UNL     1      24.562   5.737  50.641  1.00  0.00    +0.109 A 
ATOM      7  N   UNL     1      24.664   4.561  51.350  1.00  0.00    -0.342 N 
ATOM      8  C   UNL     1      22.641   7.438  50.270  1.00  0.00    +0.048 C 
ATOM      9  H   UNL     1      25.495   3.990  51.370  1.00  0.00    +0.168 HD
BRANCH   6  10
ATOM     10  N   UNL     1      25.630   6.188  49.926  1.00  0.00    -0.353 N 
ATOM     11  C   UNL     1      26.163   7.554  50.081  1.00  0.00    +0.146 C 
ATOM     12  C   UNL     1      26.195   5.421  48.807  1.00  0.00    +0.146 C 
ATOM     13  C   UNL     1      26.707   8.075  48.741  1.00  0.00    +0.181 C 
ATOM     14  C   UNL     1      27.638   5.878  48.529  1.00  0.00    +0.181 C 
ATOM     15  O   UNL     1      27.756   7.268  48.189  1.00  0.00    -0.378 OA
ENDBRANCH   6  10
ENDBRANCH   1   3
BRANCH   2  16
ATOM     16  N   UNL     1      23.162   1.591  50.883  1.00  0.00    -0.398 N 
ATOM     17  H   UNL     1      22.530   0.796  50.748  1.00  0.00    +0.156 HD
ATOM     18  H   UNL     1      22.711   2.371  50.400  1.00  0.00    +0.156 HD
ENDBRANCH   2  16
BRANCH   2  19
ATOM     19  C   UNL     1      23.281   0.681  53.139  1.00  0.00    +0.103 C 
ATOM     20  C   UNL     1      24.547   0.174  53.580  1.00  0.00    +0.103 C 
ATOM     21  C   UNL     1      22.132   0.105  53.563  1.00  0.00    +0.149 C 
ATOM     22  N   UNL     1      25.576  -0.252  53.908  1.00  0.00    -0.192 NA
ATOM     23  C   UNL     1      22.136  -1.012  54.447  1.00  0.00    +0.112 C 
ATOM     24  C   UNL     1      20.865   0.576  53.124  1.00  0.00    +0.112 C 
ATOM     25  N   UNL     1      22.136  -1.926  55.160  1.00  0.00    -0.192 NA
ATOM     26  N   UNL     1      19.854   0.999  52.744  1.00  0.00    -0.192 NA
ENDBRANCH   2  19
TORSDOF 4
ENDMDL
