REMARK SMILES C[N+](C)(C)C[C@H](O)CO[C@H]1CCCC[C@@H]1N1CCc2ccccc21
REMARK SMILES IDX 6 1 5 2 2 3 1 4 3 5 4 6 7 7 8 9 9 10 10 11 11 12 15 13 12 14
REMARK SMILES IDX 14 15 13 16 16 17 17 18 24 19 18 20 23 21 19 22 22 23 20 24
REMARK SMILES IDX 21 25
REMARK H PARENT 7 8
ROOT
ATOM      1  C   UNL     1       2.457   0.179   1.136  1.00  0.00    +0.195 C 
ENDROOT
BRANCH   1   2
ATOM      2  C   UNL     1       2.848   1.585   0.634  1.00  0.00    +0.297 C 
BRANCH   2   3
ATOM      3  N   UNL     1       3.477   1.725  -0.776  1.00  0.00    -0.329 N 
ATOM      4  C   UNL     1       4.146   3.106  -0.840  1.00  0.00    +0.334 C 
ATOM      5  C   UNL     1       4.554   0.678  -1.026  1.00  0.00    +0.334 C 
ATOM      6  C   UNL     1       2.430   1.670  -1.877  1.00  0.00    +0.334 C 
ENDBRANCH   2   3
ENDBRANCH   1   2
BRANCH   1   7
ATOM      7  O   UNL     1       3.607  -0.671   1.250  1.00  0.00    -0.385 OA
ATOM      8  H   UNL     1       3.269  -1.516   1.615  1.00  0.00    +0.211 HD
ENDBRANCH   1   7
BRANCH   1   9
ATOM      9  C   UNL     1       1.371  -0.530   0.334  1.00  0.00    +0.198 C 
BRANCH   9  10
ATOM     10  O   UNL     1       0.865  -1.591   1.152  1.00  0.00    -0.373 OA
BRANCH  10  11
ATOM     11  C   UNL     1      -0.407  -2.096   0.694  1.00  0.00    +0.140 C 
ATOM     12  C   UNL     1      -0.477  -3.558   1.146  1.00  0.00    +0.034 C 
ATOM     13  C   UNL     1      -1.588  -1.310   1.333  1.00  0.00    +0.111 C 
ATOM     14  C   UNL     1      -1.779  -4.253   0.759  1.00  0.00    +0.003 C 
ATOM     15  C   UNL     1      -2.939  -2.051   1.273  1.00  0.00    +0.028 C 
ATOM     16  C   UNL     1      -2.911  -3.296   0.393  1.00  0.00    +0.002 C 
BRANCH  13  17
ATOM     17  N   UNL     1      -1.679   0.091   0.864  1.00  0.00    -0.365 N 
ATOM     18  C   UNL     1      -2.175   1.100   1.826  1.00  0.00    +0.122 C 
ATOM     19  C   UNL     1      -2.186   0.511  -0.369  1.00  0.00    +0.040 A 
ATOM     20  C   UNL     1      -2.409   2.397   1.040  1.00  0.00    +0.059 C 
ATOM     21  C   UNL     1      -2.269  -0.175  -1.566  1.00  0.00    +0.026 A 
ATOM     22  C   UNL     1      -2.617   1.845  -0.329  1.00  0.00    -0.023 A 
ATOM     23  C   UNL     1      -2.797   0.467  -2.695  1.00  0.00    +0.002 A 
ATOM     24  C   UNL     1      -3.130   2.502  -1.438  1.00  0.00    +0.006 A 
ATOM     25  C   UNL     1      -3.227   1.797  -2.632  1.00  0.00    +0.000 A 
ENDBRANCH  13  17
ENDBRANCH  10  11
ENDBRANCH   9  10
ENDBRANCH   1   9
TORSDOF 7
