REMARK SMILES CN(CC/N=N/Nc1ccc2ncnc(-c3cccc(Cl)c3)c2c1)CCN1CCOCC1
REMARK SMILES IDX 4 1 3 2 2 3 1 4 25 5 26 6 27 7 28 8 32 9 29 10 31 11 30 12
REMARK SMILES IDX 5 13 6 14 7 15 8 17 9 18 24 19 10 20 23 21 11 22 15 23 12 24
REMARK SMILES IDX 14 25 13 26 16 27 17 28 22 29 18 30 20 31 19 32 21 33
REMARK H PARENT 7 16
ROOT
ATOM      1  C   UNL     1       1.456  -0.835  -1.965  1.00  0.00    +0.184 C 
ENDROOT
BRANCH   1   2
ATOM      2  C   UNL     1       2.630  -0.699  -0.974  1.00  0.00    +0.110 C 
BRANCH   2   3
ATOM      3  N   UNL     1       2.639   0.464  -0.077  1.00  0.00    -0.303 NA
ATOM      4  C   UNL     1       2.420   1.745  -0.736  1.00  0.00    +0.105 C 
BRANCH   3   5
ATOM      5  C   UNL     1       3.759   0.457   0.888  1.00  0.00    +0.099 C 
BRANCH   5   6
ATOM      6  C   UNL     1       4.987   1.392   0.679  1.00  0.00    +0.100 C 
BRANCH   6   7
ATOM      7  N   UNL     1       6.258   0.811   0.238  1.00  0.00    -0.297 NA
ATOM      8  C   UNL     1       6.233   0.161  -1.073  1.00  0.00    +0.113 C 
ATOM      9  C   UNL     1       6.937  -0.018   1.253  1.00  0.00    +0.113 C 
ATOM     10  C   UNL     1       6.376  -1.369  -0.994  1.00  0.00    +0.175 C 
ATOM     11  C   UNL     1       8.067  -0.829   0.603  1.00  0.00    +0.175 C 
ATOM     12  O   UNL     1       7.573  -1.800  -0.329  1.00  0.00    -0.379 OA
ENDBRANCH   6   7
ENDBRANCH   5   6
ENDBRANCH   3   5
ENDBRANCH   2   3
ENDBRANCH   1   2
BRANCH   1  13
ATOM     13  N   UNL     1       0.171  -1.122  -1.312  1.00  0.00    -0.170 NA
ATOM     14  N   UNL     1      -0.351  -0.107  -0.807  1.00  0.00    -0.075 NA
BRANCH  14  15
ATOM     15  N   UNL     1      -1.555  -0.494  -0.374  1.00  0.00    -0.260 N 
ATOM     16  H   UNL     1      -1.734  -1.488  -0.304  1.00  0.00    +0.192 HD
BRANCH  15  17
ATOM     17  C   UNL     1      -2.506   0.441   0.031  1.00  0.00    +0.059 A 
ATOM     18  C   UNL     1      -2.235   1.811   0.067  1.00  0.00    +0.030 A 
ATOM     19  C   UNL     1      -3.815   0.039   0.313  1.00  0.00    +0.040 A 
ATOM     20  C   UNL     1      -3.240   2.735   0.353  1.00  0.00    +0.031 A 
ATOM     21  C   UNL     1      -4.853   0.980   0.570  1.00  0.00    +0.029 A 
ATOM     22  C   UNL     1      -4.542   2.343   0.604  1.00  0.00    +0.074 A 
ATOM     23  C   UNL     1      -6.213   0.683   0.803  1.00  0.00    +0.082 A 
ATOM     24  N   UNL     1      -5.450   3.299   0.825  1.00  0.00    -0.236 NA
ATOM     25  N   UNL     1      -7.133   1.641   1.064  1.00  0.00    -0.236 NA
ATOM     26  C   UNL     1      -6.704   2.902   1.054  1.00  0.00    +0.223 A 
BRANCH  23  27
ATOM     27  C   UNL     1      -6.790  -0.679   0.776  1.00  0.00    +0.002 A 
ATOM     28  C   UNL     1      -7.598  -1.122   1.845  1.00  0.00    +0.010 A 
ATOM     29  C   UNL     1      -6.623  -1.538  -0.329  1.00  0.00    +0.030 A 
ATOM     30  C   UNL     1      -8.187  -2.394   1.824  1.00  0.00    +0.002 A 
ATOM     31  C   UNL     1      -7.212  -2.806  -0.344  1.00  0.00    +0.041 A 
ATOM     32  C   UNL     1      -7.988  -3.240   0.727  1.00  0.00    +0.020 A 
ATOM     33 Cl   UNL     1      -6.981  -3.828  -1.711  1.00  0.00    -0.084 Cl
ENDBRANCH  23  27
ENDBRANCH  15  17
ENDBRANCH  14  15
ENDBRANCH   1  13
TORSDOF 9
