REMARK SMILES CN(c1ccccn1)c1ccc(-c2cc(O)ccc2[N+](=O)[O-])[nH]1
REMARK SMILES IDX 13 1 14 2 15 3 17 4 18 5 19 6 12 7 9 8 10 9 23 10 11 11 2 13
REMARK SMILES IDX 1 14 3 15 4 16 8 17 5 18 7 19 6 20 20 21 21 22 22 23 16 24
REMARK H PARENT 23 12 16 25
ROOT
ATOM      1  C   UNL     1      -2.661   0.016   0.247  1.00  0.00    +0.079 A 
ATOM      2  C   UNL     1      -3.129   0.845  -0.784  1.00  0.00    +0.063 A 
ATOM      3  C   UNL     1      -4.496   0.939  -1.056  1.00  0.00    +0.116 A 
ATOM      4  C   UNL     1      -5.432   0.221  -0.318  1.00  0.00    +0.053 A 
ATOM      5  C   UNL     1      -4.993  -0.612   0.710  1.00  0.00    +0.090 A 
ATOM      6  C   UNL     1      -3.618  -0.705   0.976  1.00  0.00    +0.278 A 
ENDROOT
BRANCH   1   7
ATOM      7  C   UNL     1      -1.225  -0.035   0.519  1.00  0.00    +0.054 A 
ATOM      8  C   UNL     1       0.978  -0.295   0.062  1.00  0.00    +0.111 A 
ATOM      9  C   UNL     1       0.861   0.010   1.402  1.00  0.00    +0.047 A 
ATOM     10  N   UNL     1      -0.293  -0.314  -0.457  1.00  0.00    -0.341 N 
ATOM     11  C   UNL     1      -0.517   0.167   1.691  1.00  0.00    +0.031 A 
ATOM     12  H   UNL     1      -0.502  -0.492  -1.428  1.00  0.00    +0.168 HD
BRANCH   8  13
ATOM     13  N   UNL     1       2.049  -0.544  -0.750  1.00  0.00    -0.316 N 
ATOM     14  C   UNL     1       2.106  -1.865  -1.392  1.00  0.00    +0.153 C 
BRANCH  13  15
ATOM     15  C   UNL     1       3.354  -0.025  -0.495  1.00  0.00    +0.133 A 
ATOM     16  C   UNL     1       3.501   1.278  -0.004  1.00  0.00    +0.047 A 
ATOM     17  N   UNL     1       4.452  -0.768  -0.784  1.00  0.00    -0.239 NA
ATOM     18  C   UNL     1       4.771   1.806   0.228  1.00  0.00    +0.005 A 
ATOM     19  C   UNL     1       5.674  -0.239  -0.549  1.00  0.00    +0.113 A 
ATOM     20  C   UNL     1       5.885   1.030  -0.046  1.00  0.00    +0.020 A 
ENDBRANCH  13  15
ENDBRANCH   8  13
ENDBRANCH   1   7
BRANCH   6  21
ATOM     21  N   UNL     1      -3.211  -1.622   2.019  1.00  0.00    +0.063 N 
ATOM     22  O   UNL     1      -2.749  -2.713   1.663  1.00  0.00    -0.258 OA
ATOM     23  O   UNL     1      -3.413  -1.263   3.188  1.00  0.00    -0.258 OA
ENDBRANCH   6  21
BRANCH   3  24
ATOM     24  O   UNL     1      -4.878   1.765  -2.071  1.00  0.00    -0.508 OA
ATOM     25  H   UNL     1      -5.847   1.763  -2.138  1.00  0.00    +0.293 HD
ENDBRANCH   3  24
TORSDOF 5
