REMARK SMILES CN(c1ccc(O)cc1)c1ccc(-c2cc(O)ccc2[N+](=O)[O-])[nH]1
REMARK SMILES IDX 10 1 11 2 12 3 13 4 24 5 2 7 1 8 3 9 4 10 9 11 5 12 8 13
REMARK SMILES IDX 6 14 7 15 14 17 15 18 20 19 16 20 19 21 18 22 21 23 22 24
REMARK SMILES IDX 23 25 17 26
REMARK H PARENT 24 6 7 16 17 27
ROOT
ATOM      1  C   UNL     1       0.714   0.315  -0.018  1.00  0.00    +0.110 A 
ATOM      2  C   UNL     1       0.576   0.426   1.351  1.00  0.00    +0.047 A 
ATOM      3  C   UNL     1      -0.805   0.524   1.647  1.00  0.00    +0.031 A 
ATOM      4  C   UNL     1      -1.501   0.454   0.453  1.00  0.00    +0.054 A 
ATOM      5  N   UNL     1      -0.556   0.325  -0.543  1.00  0.00    -0.341 N 
ATOM      6  H   UNL     1      -0.765   0.190  -1.520  1.00  0.00    +0.168 HD
ENDROOT
BRANCH   1   7
ATOM      7  N   UNL     1       1.811   0.180  -0.827  1.00  0.00    -0.331 N 
ATOM      8  C   UNL     1       1.906   1.044  -2.010  1.00  0.00    +0.152 C 
BRANCH   7   9
ATOM      9  C   UNL     1       3.040  -0.335  -0.332  1.00  0.00    +0.042 A 
ATOM     10  C   UNL     1       4.287   0.254  -0.601  1.00  0.00    +0.030 A 
ATOM     11  C   UNL     1       3.039  -1.505   0.455  1.00  0.00    +0.030 A 
ATOM     12  C   UNL     1       5.474  -0.295  -0.101  1.00  0.00    +0.048 A 
ATOM     13  C   UNL     1       4.221  -2.060   0.957  1.00  0.00    +0.048 A 
ATOM     14  C   UNL     1       5.432  -1.446   0.673  1.00  0.00    +0.115 A 
BRANCH  14  15
ATOM     15  O   UNL     1       6.611  -1.946   1.139  1.00  0.00    -0.508 OA
ATOM     16  H   UNL     1       6.420  -2.738   1.667  1.00  0.00    +0.293 HD
ENDBRANCH  14  15
ENDBRANCH   7   9
ENDBRANCH   1   7
BRANCH   4  17
ATOM     17  C   UNL     1      -2.937   0.490   0.177  1.00  0.00    +0.079 A 
ATOM     18  C   UNL     1      -3.426   1.410  -0.763  1.00  0.00    +0.063 A 
ATOM     19  C   UNL     1      -3.875  -0.335   0.816  1.00  0.00    +0.278 A 
ATOM     20  C   UNL     1      -4.793   1.490  -1.036  1.00  0.00    +0.116 A 
ATOM     21  C   UNL     1      -5.251  -0.256   0.548  1.00  0.00    +0.090 A 
ATOM     22  C   UNL     1      -5.710   0.668  -0.388  1.00  0.00    +0.053 A 
BRANCH  19  23
ATOM     23  N   UNL     1      -3.447  -1.345   1.760  1.00  0.00    +0.063 N 
ATOM     24  O   UNL     1      -3.662  -1.116   2.958  1.00  0.00    -0.258 OA
ATOM     25  O   UNL     1      -2.955  -2.381   1.294  1.00  0.00    -0.258 OA
ENDBRANCH  19  23
BRANCH  20  26
ATOM     26  O   UNL     1      -5.195   2.408  -1.961  1.00  0.00    -0.508 OA
ATOM     27  H   UNL     1      -6.164   2.386  -2.033  1.00  0.00    +0.293 HD
ENDBRANCH  20  26
ENDBRANCH   4  17
TORSDOF 6
