REMARK SMILES C[N+](C)(C)C[C@@H](O)COc1ccc(SC2=NCCS2)cn1
REMARK SMILES IDX 8 1 6 2 5 3 2 4 1 5 3 6 4 7 7 8 9 10 10 11 11 12 21 13 12 14
REMARK SMILES IDX 20 15 13 16 14 17 15 18 16 19 19 20 17 21 18 22
REMARK H PARENT 7 9
ROOT
ATOM      1  C   UNL     1      -1.003   0.403  -0.197  1.00  0.00    +0.269 C 
ENDROOT
BRANCH   1   2
ATOM      2  C   UNL     1      -2.396   0.330   0.445  1.00  0.00    +0.206 C 
BRANCH   2   3
ATOM      3  C   UNL     1      -3.258  -0.709  -0.302  1.00  0.00    +0.299 C 
BRANCH   3   4
ATOM      4  N   UNL     1      -4.754  -0.752   0.124  1.00  0.00    -0.329 N 
ATOM      5  C   UNL     1      -4.902  -1.036   1.617  1.00  0.00    +0.334 C 
ATOM      6  C   UNL     1      -5.466   0.548  -0.216  1.00  0.00    +0.334 C 
ATOM      7  C   UNL     1      -5.423  -1.892  -0.647  1.00  0.00    +0.334 C 
ENDBRANCH   3   4
ENDBRANCH   2   3
BRANCH   2   8
ATOM      8  O   UNL     1      -2.254  -0.049   1.822  1.00  0.00    -0.384 OA
ATOM      9  H   UNL     1      -1.514   0.484   2.182  1.00  0.00    +0.211 HD
ENDBRANCH   2   8
ENDBRANCH   1   2
BRANCH   1  10
ATOM     10  O   UNL     1      -0.277   1.433   0.485  1.00  0.00    -0.475 OA
BRANCH  10  11
ATOM     11  C   UNL     1       0.996   1.607  -0.024  1.00  0.00    +0.213 A 
ATOM     12  C   UNL     1       1.779   2.578   0.580  1.00  0.00    +0.069 A 
ATOM     13  N   UNL     1       1.404   0.849  -1.062  1.00  0.00    -0.221 NA
ATOM     14  C   UNL     1       3.069   2.785   0.096  1.00  0.00    +0.022 A 
ATOM     15  C   UNL     1       2.669   1.068  -1.502  1.00  0.00    +0.130 A 
ATOM     16  C   UNL     1       3.539   2.012  -0.965  1.00  0.00    +0.033 A 
BRANCH  16  17
ATOM     17  S   UNL     1       5.169   2.260  -1.616  1.00  0.00    -0.062 SA
BRANCH  17  18
ATOM     18  C   UNL     1       6.045   0.923  -0.935  1.00  0.00    +0.129 C 
ATOM     19  N   UNL     1       5.529   0.042  -0.143  1.00  0.00    -0.271 NA
ATOM     20  S   UNL     1       7.735   0.783  -1.326  1.00  0.00    -0.098 SA
ATOM     21  C   UNL     1       6.560  -0.960   0.198  1.00  0.00    +0.155 C 
ATOM     22  C   UNL     1       7.947  -0.353   0.053  1.00  0.00    +0.101 C 
ENDBRANCH  17  18
ENDBRANCH  16  17
ENDBRANCH  10  11
ENDBRANCH   1  10
TORSDOF 8
