REMARK SMILES Cc1cc(-c2ccc(O)c([N+](=O)[O-])c2)[nH]c1-c1cccc(Cl)c1
REMARK SMILES IDX 5 1 6 2 7 3 8 4 10 5 14 6 4 7 2 8 3 9 16 10 15 11 1 12 17 14
REMARK SMILES IDX 18 15 23 16 19 17 21 18 20 19 22 20 11 21 12 22 13 23 9 24
REMARK H PARENT 15 13 9 25
ROOT
ATOM      1  C   UNL     1      -2.096  -0.189   0.076  1.00  0.00    +0.005 A 
ATOM      2  C   UNL     1      -2.369  -1.554  -0.116  1.00  0.00    +0.014 A 
ATOM      3  C   UNL     1      -3.663  -2.066   0.049  1.00  0.00    +0.054 A 
ATOM      4  C   UNL     1      -4.704  -1.215   0.412  1.00  0.00    +0.194 A 
ATOM      5  C   UNL     1      -4.432   0.137   0.609  1.00  0.00    +0.311 A 
ATOM      6  C   UNL     1      -3.145   0.662   0.438  1.00  0.00    +0.100 A 
ENDROOT
BRANCH   1   7
ATOM      7  C   UNL     1      -0.746   0.344  -0.104  1.00  0.00    +0.046 A 
ATOM      8  C   UNL     1       1.105   1.604  -0.550  1.00  0.00    -0.025 A 
ATOM      9  C   UNL     1      -0.319   1.566  -0.591  1.00  0.00    +0.032 A 
ATOM     10  C   UNL     1       1.525   0.392  -0.020  1.00  0.00    +0.049 A 
ATOM     11  N   UNL     1       0.393  -0.348   0.240  1.00  0.00    -0.354 N 
ATOM     12  C   UNL     1       1.954   2.737  -1.006  1.00  0.00    +0.047 C 
ATOM     13  H   UNL     1       0.402  -1.262   0.671  1.00  0.00    +0.167 HD
BRANCH  10  14
ATOM     14  C   UNL     1       2.862  -0.119   0.274  1.00  0.00    -0.000 A 
ATOM     15  C   UNL     1       3.749   0.627   1.061  1.00  0.00    +0.010 A 
ATOM     16  C   UNL     1       3.272  -1.363  -0.222  1.00  0.00    +0.030 A 
ATOM     17  C   UNL     1       5.026   0.140   1.350  1.00  0.00    +0.002 A 
ATOM     18  C   UNL     1       4.548  -1.845   0.070  1.00  0.00    +0.041 A 
ATOM     19  C   UNL     1       5.426  -1.100   0.854  1.00  0.00    +0.020 A 
ATOM     20 Cl   UNL     1       5.041  -3.375  -0.544  1.00  0.00    -0.084 Cl
ENDBRANCH  10  14
ENDBRANCH   1   7
BRANCH   5  21
ATOM     21  N   UNL     1      -5.488   1.044   1.004  1.00  0.00    +0.066 N 
ATOM     22  O   UNL     1      -5.755   1.967   0.220  1.00  0.00    -0.258 OA
ATOM     23  O   UNL     1      -6.005   0.870   2.116  1.00  0.00    -0.258 OA
ENDBRANCH   5  21
BRANCH   4  24
ATOM     24  O   UNL     1      -5.969  -1.704   0.545  1.00  0.00    -0.502 OA
ATOM     25  H   UNL     1      -5.969  -2.669   0.422  1.00  0.00    +0.293 HD
ENDBRANCH   4  24
TORSDOF 4
