MODEL 1
REMARK VINA RESULT:    -7.745      0.000      0.000
REMARK INTER + INTRA:         -10.441
REMARK INTER:                  -9.556
REMARK INTRA:                  -0.884
REMARK UNBOUND:                -0.884
REMARK SMILES O=[N+]([O-])c1cc(-c2ccc(O)c([N+](=O)[O-])c2)ccc1O
REMARK SMILES IDX 4 1 5 2 6 3 17 4 18 5 19 6 2 7 1 8 3 9 20 10 7 12 8 13 16 14
REMARK SMILES IDX 9 15 12 16 10 17 13 18 14 19 15 20 11 21
REMARK H PARENT 20 11 11 22
ROOT
ATOM      1  C   UNL     1      27.145   0.649  54.078  1.00  0.00    +0.311 A 
ATOM      2  C   UNL     1      25.791   0.292  54.216  1.00  0.00    +0.098 A 
ATOM      3  C   UNL     1      24.824   0.782  53.321  1.00  0.00    -0.011 A 
ATOM      4  C   UNL     1      25.252   1.635  52.289  1.00  0.00    +0.013 A 
ATOM      5  C   UNL     1      26.597   1.989  52.151  1.00  0.00    +0.054 A 
ATOM      6  C   UNL     1      27.549   1.499  53.042  1.00  0.00    +0.194 A 
ENDROOT
BRANCH   1   7
ATOM      7  N   UNL     1      28.115   0.115  55.037  1.00  0.00    +0.066 N 
ATOM      8  O   UNL     1      29.188  -0.316  54.585  1.00  0.00    -0.258 OA
ATOM      9  O   UNL     1      27.814   0.124  56.238  1.00  0.00    -0.258 OA
ENDBRANCH   1   7
BRANCH   6  10
ATOM     10  O   UNL     1      28.831   1.914  52.809  1.00  0.00    -0.502 OA
ATOM     11  H   UNL     1      29.367   1.822  53.625  1.00  0.00    +0.293 HD
ENDBRANCH   6  10
BRANCH   3  12
ATOM     12  C   UNL     1      23.405   0.416  53.459  1.00  0.00    -0.011 A 
ATOM     13  C   UNL     1      23.027  -0.786  54.079  1.00  0.00    +0.013 A 
ATOM     14  C   UNL     1      22.389   1.260  52.977  1.00  0.00    +0.098 A 
ATOM     15  C   UNL     1      21.681  -1.141  54.215  1.00  0.00    +0.054 A 
ATOM     16  C   UNL     1      21.034   0.904  53.114  1.00  0.00    +0.311 A 
ATOM     17  C   UNL     1      20.680  -0.300  53.735  1.00  0.00    +0.194 A 
BRANCH  16  18
ATOM     18  N   UNL     1      20.011   1.816  52.598  1.00  0.00    +0.066 N 
ATOM     19  O   UNL     1      20.140   3.024  52.858  1.00  0.00    -0.258 OA
ATOM     20  O   UNL     1      19.081   1.337  51.936  1.00  0.00    -0.258 OA
ENDBRANCH  16  18
BRANCH  17  21
ATOM     21  O   UNL     1      19.402  -0.749  53.924  1.00  0.00    -0.502 OA
ATOM     22  H   UNL     1      19.415  -1.666  54.272  1.00  0.00    +0.293 HD
ENDBRANCH  17  21
ENDBRANCH   3  12
TORSDOF 5
ENDMDL
MODEL 2
REMARK VINA RESULT:    -7.717      0.118      7.219
REMARK INTER + INTRA:         -10.405
REMARK INTER:                  -9.516
REMARK INTRA:                  -0.889
REMARK UNBOUND:                -0.884
REMARK SMILES O=[N+]([O-])c1cc(-c2ccc(O)c([N+](=O)[O-])c2)ccc1O
REMARK SMILES IDX 4 1 5 2 6 3 17 4 18 5 19 6 2 7 1 8 3 9 20 10 7 12 8 13 16 14
REMARK SMILES IDX 9 15 12 16 10 17 13 18 14 19 15 20 11 21
REMARK H PARENT 20 11 11 22
ROOT
ATOM      1  C   UNL     1      21.036   0.779  53.072  1.00  0.00    +0.311 A 
ATOM      2  C   UNL     1      22.388   1.142  52.934  1.00  0.00    +0.098 A 
ATOM      3  C   UNL     1      23.409   0.311  53.428  1.00  0.00    -0.011 A 
ATOM      4  C   UNL     1      23.036  -0.888  54.059  1.00  0.00    +0.013 A 
ATOM      5  C   UNL     1      21.692  -1.249  54.196  1.00  0.00    +0.054 A 
ATOM      6  C   UNL     1      20.687  -0.420  53.704  1.00  0.00    +0.194 A 
ENDROOT
BRANCH   1   7
ATOM      7  N   UNL     1      20.008   1.680  52.544  1.00  0.00    +0.066 N 
ATOM      8  O   UNL     1      19.124   1.182  51.828  1.00  0.00    -0.258 OA
ATOM      9  O   UNL     1      20.077   2.880  52.839  1.00  0.00    -0.258 OA
ENDBRANCH   1   7
BRANCH   6  10
ATOM     10  O   UNL     1      19.413  -0.875  53.896  1.00  0.00    -0.502 OA
ATOM     11  H   UNL     1      18.888  -0.209  54.390  1.00  0.00    +0.293 HD
ENDBRANCH   6  10
BRANCH   3  12
ATOM     12  C   UNL     1      24.826   0.683  53.290  1.00  0.00    -0.011 A 
ATOM     13  C   UNL     1      25.252   1.534  52.257  1.00  0.00    +0.013 A 
ATOM     14  C   UNL     1      25.793   0.199  54.189  1.00  0.00    +0.098 A 
ATOM     15  C   UNL     1      26.596   1.893  52.120  1.00  0.00    +0.054 A 
ATOM     16  C   UNL     1      27.146   0.561  54.052  1.00  0.00    +0.311 A 
ATOM     17  C   UNL     1      27.548   1.410  53.015  1.00  0.00    +0.194 A 
BRANCH  16  18
ATOM     18  N   UNL     1      28.116   0.034  55.015  1.00  0.00    +0.066 N 
ATOM     19  O   UNL     1      29.165  -0.452  54.561  1.00  0.00    -0.258 OA
ATOM     20  O   UNL     1      27.839   0.103  56.220  1.00  0.00    -0.258 OA
ENDBRANCH  16  18
BRANCH  17  21
ATOM     21  O   UNL     1      28.829   1.828  52.783  1.00  0.00    -0.502 OA
ATOM     22  H   UNL     1      29.466   1.219  53.215  1.00  0.00    +0.293 HD
ENDBRANCH  17  21
ENDBRANCH   3  12
TORSDOF 5
ENDMDL
MODEL 3
REMARK VINA RESULT:    -7.613      1.358      2.208
REMARK INTER + INTRA:         -10.278
REMARK INTER:                  -9.525
REMARK INTRA:                  -0.753
REMARK UNBOUND:                -0.884
REMARK SMILES O=[N+]([O-])c1cc(-c2ccc(O)c([N+](=O)[O-])c2)ccc1O
REMARK SMILES IDX 4 1 5 2 6 3 17 4 18 5 19 6 2 7 1 8 3 9 20 10 7 12 8 13 16 14
REMARK SMILES IDX 9 15 12 16 10 17 13 18 14 19 15 20 11 21
REMARK H PARENT 20 11 11 22
ROOT
ATOM      1  C   UNL     1      27.207   0.692  53.930  1.00  0.00    +0.311 A 
ATOM      2  C   UNL     1      25.841   0.391  53.786  1.00  0.00    +0.098 A 
ATOM      3  C   UNL     1      25.067   1.020  52.795  1.00  0.00    -0.011 A 
ATOM      4  C   UNL     1      25.700   1.955  51.958  1.00  0.00    +0.013 A 
ATOM      5  C   UNL     1      27.058   2.254  52.101  1.00  0.00    +0.054 A 
ATOM      6  C   UNL     1      27.817   1.626  53.085  1.00  0.00    +0.194 A 
ENDROOT
BRANCH   1   7
ATOM      7  N   UNL     1      27.971   0.013  54.980  1.00  0.00    +0.066 N 
ATOM      8  O   UNL     1      28.980  -0.623  54.632  1.00  0.00    -0.258 OA
ATOM      9  O   UNL     1      27.572   0.109  56.148  1.00  0.00    -0.258 OA
ENDBRANCH   1   7
BRANCH   6  10
ATOM     10  O   UNL     1      29.132   1.999  53.131  1.00  0.00    -0.502 OA
ATOM     11  H   UNL     1      29.433   2.281  52.241  1.00  0.00    +0.293 HD
ENDBRANCH   6  10
BRANCH   3  12
ATOM     12  C   UNL     1      23.636   0.712  52.639  1.00  0.00    -0.011 A 
ATOM     13  C   UNL     1      22.875   1.316  51.625  1.00  0.00    +0.013 A 
ATOM     14  C   UNL     1      22.992  -0.195  53.498  1.00  0.00    +0.098 A 
ATOM     15  C   UNL     1      21.515   1.028  51.469  1.00  0.00    +0.054 A 
ATOM     16  C   UNL     1      21.624  -0.486  53.341  1.00  0.00    +0.311 A 
ATOM     17  C   UNL     1      20.884   0.128  52.324  1.00  0.00    +0.194 A 
BRANCH  16  18
ATOM     18  N   UNL     1      20.998  -1.440  54.259  1.00  0.00    +0.066 N 
ATOM     19  O   UNL     1      21.704  -1.907  55.168  1.00  0.00    -0.258 OA
ATOM     20  O   UNL     1      19.806  -1.728  54.080  1.00  0.00    -0.258 OA
ENDBRANCH  16  18
BRANCH  17  21
ATOM     21  O   UNL     1      19.555  -0.076  52.077  1.00  0.00    -0.502 OA
ATOM     22  H   UNL     1      19.015   0.556  52.598  1.00  0.00    +0.293 HD
ENDBRANCH  17  21
ENDBRANCH   3  12
TORSDOF 5
ENDMDL
MODEL 4
REMARK VINA RESULT:    -7.613      1.377      6.837
REMARK INTER + INTRA:         -10.278
REMARK INTER:                  -9.522
REMARK INTRA:                  -0.756
REMARK UNBOUND:                -0.884
REMARK SMILES O=[N+]([O-])c1cc(-c2ccc(O)c([N+](=O)[O-])c2)ccc1O
REMARK SMILES IDX 4 1 5 2 6 3 17 4 18 5 19 6 2 7 1 8 3 9 20 10 7 12 8 13 16 14
REMARK SMILES IDX 9 15 12 16 10 17 13 18 14 19 15 20 11 21
REMARK H PARENT 20 11 11 22
ROOT
ATOM      1  C   UNL     1      21.612  -0.470  53.237  1.00  0.00    +0.311 A 
ATOM      2  C   UNL     1      22.976  -0.172  53.418  1.00  0.00    +0.098 A 
ATOM      3  C   UNL     1      23.649   0.681  52.527  1.00  0.00    -0.011 A 
ATOM      4  C   UNL     1      22.920   1.226  51.456  1.00  0.00    +0.013 A 
ATOM      5  C   UNL     1      21.565   0.931  51.276  1.00  0.00    +0.054 A 
ATOM      6  C   UNL     1      20.905   0.084  52.163  1.00  0.00    +0.194 A 
ENDROOT
BRANCH   1   7
ATOM      7  N   UNL     1      20.955  -1.367  54.190  1.00  0.00    +0.066 N 
ATOM      8  O   UNL     1      21.631  -1.778  55.147  1.00  0.00    -0.258 OA
ATOM      9  O   UNL     1      19.771  -1.665  53.990  1.00  0.00    -0.258 OA
ENDBRANCH   1   7
BRANCH   6  10
ATOM     10  O   UNL     1      19.584  -0.132  51.887  1.00  0.00    -0.502 OA
ATOM     11  H   UNL     1      19.036   0.088  52.670  1.00  0.00    +0.293 HD
ENDBRANCH   6  10
BRANCH   3  12
ATOM     12  C   UNL     1      25.075   0.996  52.707  1.00  0.00    -0.011 A 
ATOM     13  C   UNL     1      25.719   1.928  51.877  1.00  0.00    +0.013 A 
ATOM     14  C   UNL     1      25.833   0.372  53.714  1.00  0.00    +0.098 A 
ATOM     15  C   UNL     1      27.074   2.233  52.043  1.00  0.00    +0.054 A 
ATOM     16  C   UNL     1      27.197   0.679  53.881  1.00  0.00    +0.311 A 
ATOM     17  C   UNL     1      27.818   1.612  53.043  1.00  0.00    +0.194 A 
BRANCH  16  18
ATOM     18  N   UNL     1      27.944   0.006  54.946  1.00  0.00    +0.066 N 
ATOM     19  O   UNL     1      28.987  -0.587  54.626  1.00  0.00    -0.258 OA
ATOM     20  O   UNL     1      27.497   0.066  56.100  1.00  0.00    -0.258 OA
ENDBRANCH  16  18
BRANCH  17  21
ATOM     21  O   UNL     1      29.131   1.988  53.111  1.00  0.00    -0.502 OA
ATOM     22  H   UNL     1      29.708   1.195  53.128  1.00  0.00    +0.293 HD
ENDBRANCH  17  21
ENDBRANCH   3  12
TORSDOF 5
ENDMDL
MODEL 5
REMARK VINA RESULT:    -7.142      1.692      7.069
REMARK INTER + INTRA:          -9.696
REMARK INTER:                  -8.940
REMARK INTRA:                  -0.756
REMARK UNBOUND:                -0.884
REMARK SMILES O=[N+]([O-])c1cc(-c2ccc(O)c([N+](=O)[O-])c2)ccc1O
REMARK SMILES IDX 4 1 5 2 6 3 17 4 18 5 19 6 2 7 1 8 3 9 20 10 7 12 8 13 16 14
REMARK SMILES IDX 9 15 12 16 10 17 13 18 14 19 15 20 11 21
REMARK H PARENT 20 11 11 22
ROOT
ATOM      1  C   UNL     1      20.843  -0.318  53.019  1.00  0.00    +0.311 A 
ATOM      2  C   UNL     1      21.877   0.466  52.476  1.00  0.00    +0.098 A 
ATOM      3  C   UNL     1      23.185   0.381  52.984  1.00  0.00    -0.011 A 
ATOM      4  C   UNL     1      23.424  -0.508  54.046  1.00  0.00    +0.013 A 
ATOM      5  C   UNL     1      22.397  -1.288  54.585  1.00  0.00    +0.054 A 
ATOM      6  C   UNL     1      21.104  -1.198  54.076  1.00  0.00    +0.194 A 
ENDROOT
BRANCH   1   7
ATOM      7  N   UNL     1      19.495  -0.193  52.458  1.00  0.00    +0.066 N 
ATOM      8  O   UNL     1      19.399   0.212  51.287  1.00  0.00    -0.258 OA
ATOM      9  O   UNL     1      18.533  -0.494  53.176  1.00  0.00    -0.258 OA
ENDBRANCH   1   7
BRANCH   6  10
ATOM     10  O   UNL     1      20.183  -2.006  54.683  1.00  0.00    -0.502 OA
ATOM     11  H   UNL     1      19.281  -1.644  54.553  1.00  0.00    +0.293 HD
ENDBRANCH   6  10
BRANCH   3  12
ATOM     12  C   UNL     1      24.272   1.199  52.423  1.00  0.00    -0.011 A 
ATOM     13  C   UNL     1      24.085   1.938  51.244  1.00  0.00    +0.013 A 
ATOM     14  C   UNL     1      25.528   1.265  53.053  1.00  0.00    +0.098 A 
ATOM     15  C   UNL     1      25.114   2.719  50.705  1.00  0.00    +0.054 A 
ATOM     16  C   UNL     1      26.563   2.050  52.511  1.00  0.00    +0.311 A 
ATOM     17  C   UNL     1      26.354   2.779  51.335  1.00  0.00    +0.194 A 
BRANCH  16  18
ATOM     18  N   UNL     1      27.853   2.089  53.205  1.00  0.00    +0.066 N 
ATOM     19  O   UNL     1      28.791   1.450  52.702  1.00  0.00    -0.258 OA
ATOM     20  O   UNL     1      27.936   2.753  54.247  1.00  0.00    -0.258 OA
ENDBRANCH  16  18
BRANCH  17  21
ATOM     21  O   UNL     1      27.282   3.573  50.719  1.00  0.00    -0.502 OA
ATOM     22  H   UNL     1      26.957   4.498  50.673  1.00  0.00    +0.293 HD
ENDBRANCH  17  21
ENDBRANCH   3  12
TORSDOF 5
ENDMDL
MODEL 6
REMARK VINA RESULT:    -7.090      3.158      4.848
REMARK INTER + INTRA:          -9.632
REMARK INTER:                  -8.736
REMARK INTRA:                  -0.896
REMARK UNBOUND:                -0.884
REMARK SMILES O=[N+]([O-])c1cc(-c2ccc(O)c([N+](=O)[O-])c2)ccc1O
REMARK SMILES IDX 4 1 5 2 6 3 17 4 18 5 19 6 2 7 1 8 3 9 20 10 7 12 8 13 16 14
REMARK SMILES IDX 9 15 12 16 10 17 13 18 14 19 15 20 11 21
REMARK H PARENT 20 11 11 22
ROOT
ATOM      1  C   UNL     1      25.836  -0.146  54.576  1.00  0.00    +0.311 A 
ATOM      2  C   UNL     1      25.607   0.678  53.459  1.00  0.00    +0.098 A 
ATOM      3  C   UNL     1      24.347   0.711  52.837  1.00  0.00    -0.011 A 
ATOM      4  C   UNL     1      23.329  -0.101  53.365  1.00  0.00    +0.013 A 
ATOM      5  C   UNL     1      23.556  -0.919  54.475  1.00  0.00    +0.054 A 
ATOM      6  C   UNL     1      24.807  -0.946  55.085  1.00  0.00    +0.194 A 
ENDROOT
BRANCH   1   7
ATOM      7  N   UNL     1      27.167  -0.149  55.188  1.00  0.00    +0.066 N 
ATOM      8  O   UNL     1      28.130  -0.442  54.460  1.00  0.00    -0.258 OA
ATOM      9  O   UNL     1      27.259   0.140  56.388  1.00  0.00    -0.258 OA
ENDBRANCH   1   7
BRANCH   6  10
ATOM     10  O   UNL     1      24.911  -1.784  56.161  1.00  0.00    -0.502 OA
ATOM     11  H   UNL     1      24.184  -2.442  56.146  1.00  0.00    +0.293 HD
ENDBRANCH   6  10
BRANCH   3  12
ATOM     12  C   UNL     1      24.100   1.569  51.667  1.00  0.00    -0.011 A 
ATOM     13  C   UNL     1      22.861   1.546  51.004  1.00  0.00    +0.013 A 
ATOM     14  C   UNL     1      25.095   2.434  51.179  1.00  0.00    +0.098 A 
ATOM     15  C   UNL     1      22.618   2.359  49.892  1.00  0.00    +0.054 A 
ATOM     16  C   UNL     1      24.850   3.252  50.060  1.00  0.00    +0.311 A 
ATOM     17  C   UNL     1      23.608   3.214  49.416  1.00  0.00    +0.194 A 
BRANCH  16  18
ATOM     18  N   UNL     1      25.917   4.140  49.591  1.00  0.00    +0.066 N 
ATOM     19  O   UNL     1      27.084   3.720  49.665  1.00  0.00    -0.258 OA
ATOM     20  O   UNL     1      25.599   5.253  49.150  1.00  0.00    -0.258 OA
ENDBRANCH  16  18
BRANCH  17  21
ATOM     21  O   UNL     1      23.258   3.960  48.324  1.00  0.00    -0.502 OA
ATOM     22  H   UNL     1      22.560   3.499  47.811  1.00  0.00    +0.293 HD
ENDBRANCH  17  21
ENDBRANCH   3  12
TORSDOF 5
ENDMDL
MODEL 7
REMARK VINA RESULT:    -7.046      1.621      2.304
REMARK INTER + INTRA:          -9.578
REMARK INTER:                  -8.709
REMARK INTRA:                  -0.869
REMARK UNBOUND:                -0.884
REMARK SMILES O=[N+]([O-])c1cc(-c2ccc(O)c([N+](=O)[O-])c2)ccc1O
REMARK SMILES IDX 4 1 5 2 6 3 17 4 18 5 19 6 2 7 1 8 3 9 20 10 7 12 8 13 16 14
REMARK SMILES IDX 9 15 12 16 10 17 13 18 14 19 15 20 11 21
REMARK H PARENT 20 11 11 22
ROOT
ATOM      1  C   UNL     1      27.950   0.823  53.574  1.00  0.00    +0.311 A 
ATOM      2  C   UNL     1      26.566   1.070  53.506  1.00  0.00    +0.098 A 
ATOM      3  C   UNL     1      25.668   0.039  53.178  1.00  0.00    -0.011 A 
ATOM      4  C   UNL     1      26.195  -1.239  52.923  1.00  0.00    +0.013 A 
ATOM      5  C   UNL     1      27.569  -1.484  52.991  1.00  0.00    +0.054 A 
ATOM      6  C   UNL     1      28.452  -0.457  53.316  1.00  0.00    +0.194 A 
ENDROOT
BRANCH   1   7
ATOM      7  N   UNL     1      28.846   1.930  53.915  1.00  0.00    +0.066 N 
ATOM      8  O   UNL     1      29.454   1.861  54.997  1.00  0.00    -0.258 OA
ATOM      9  O   UNL     1      28.948   2.868  53.114  1.00  0.00    -0.258 OA
ENDBRANCH   1   7
BRANCH   6  10
ATOM     10  O   UNL     1      29.771  -0.815  53.351  1.00  0.00    -0.502 OA
ATOM     11  H   UNL     1      30.161  -0.579  54.220  1.00  0.00    +0.293 HD
ENDBRANCH   6  10
BRANCH   3  12
ATOM     12  C   UNL     1      24.220   0.289  53.103  1.00  0.00    -0.011 A 
ATOM     13  C   UNL     1      23.300  -0.636  53.623  1.00  0.00    +0.013 A 
ATOM     14  C   UNL     1      23.717   1.460  52.509  1.00  0.00    +0.098 A 
ATOM     15  C   UNL     1      21.922  -0.406  53.555  1.00  0.00    +0.054 A 
ATOM     16  C   UNL     1      22.330   1.692  52.442  1.00  0.00    +0.311 A 
ATOM     17  C   UNL     1      21.431   0.756  52.967  1.00  0.00    +0.194 A 
BRANCH  16  18
ATOM     18  N   UNL     1      21.853   2.928  51.816  1.00  0.00    +0.066 N 
ATOM     19  O   UNL     1      22.321   3.223  50.704  1.00  0.00    -0.258 OA
ATOM     20  O   UNL     1      21.016   3.606  52.427  1.00  0.00    -0.258 OA
ENDBRANCH  16  18
BRANCH  17  21
ATOM     21  O   UNL     1      20.069   0.874  52.958  1.00  0.00    -0.502 OA
ATOM     22  H   UNL     1      19.727   0.900  53.877  1.00  0.00    +0.293 HD
ENDBRANCH  17  21
ENDBRANCH   3  12
TORSDOF 5
ENDMDL
MODEL 8
REMARK VINA RESULT:    -7.001      3.150      5.819
REMARK INTER + INTRA:          -9.523
REMARK INTER:                  -8.637
REMARK INTRA:                  -0.885
REMARK UNBOUND:                -0.884
REMARK SMILES O=[N+]([O-])c1cc(-c2ccc(O)c([N+](=O)[O-])c2)ccc1O
REMARK SMILES IDX 4 1 5 2 6 3 17 4 18 5 19 6 2 7 1 8 3 9 20 10 7 12 8 13 16 14
REMARK SMILES IDX 9 15 12 16 10 17 13 18 14 19 15 20 11 21
REMARK H PARENT 20 11 11 22
ROOT
ATOM      1  C   UNL     1      24.799   3.298  49.970  1.00  0.00    +0.311 A 
ATOM      2  C   UNL     1      25.064   2.493  51.093  1.00  0.00    +0.098 A 
ATOM      3  C   UNL     1      24.083   1.624  51.601  1.00  0.00    -0.011 A 
ATOM      4  C   UNL     1      22.836   1.585  50.954  1.00  0.00    +0.013 A 
ATOM      5  C   UNL     1      22.573   2.385  49.838  1.00  0.00    +0.054 A 
ATOM      6  C   UNL     1      23.550   3.243  49.341  1.00  0.00    +0.194 A 
ENDROOT
BRANCH   1   7
ATOM      7  N   UNL     1      25.852   4.190  49.480  1.00  0.00    +0.066 N 
ATOM      8  O   UNL     1      25.509   5.318  49.088  1.00  0.00    -0.258 OA
ATOM      9  O   UNL     1      27.018   3.775  49.483  1.00  0.00    -0.258 OA
ENDBRANCH   1   7
BRANCH   6  10
ATOM     10  O   UNL     1      23.179   3.976  48.248  1.00  0.00    -0.502 OA
ATOM     11  H   UNL     1      23.628   4.848  48.260  1.00  0.00    +0.293 HD
ENDBRANCH   6  10
BRANCH   3  12
ATOM     12  C   UNL     1      24.351   0.779  52.777  1.00  0.00    -0.011 A 
ATOM     13  C   UNL     1      23.376  -0.105  53.267  1.00  0.00    +0.013 A 
ATOM     14  C   UNL     1      25.589   0.834  53.441  1.00  0.00    +0.098 A 
ATOM     15  C   UNL     1      23.623  -0.911  54.384  1.00  0.00    +0.054 A 
ATOM     16  C   UNL     1      25.838   0.022  54.564  1.00  0.00    +0.311 A 
ATOM     17  C   UNL     1      24.852  -0.852  55.035  1.00  0.00    +0.194 A 
BRANCH  16  18
ATOM     18  N   UNL     1      27.145   0.112  55.220  1.00  0.00    +0.066 N 
ATOM     19  O   UNL     1      28.128   0.362  54.504  1.00  0.00    -0.258 OA
ATOM     20  O   UNL     1      27.196  -0.066  56.445  1.00  0.00    -0.258 OA
ENDBRANCH  16  18
BRANCH  17  21
ATOM     21  O   UNL     1      24.981  -1.685  56.113  1.00  0.00    -0.502 OA
ATOM     22  H   UNL     1      25.495  -2.482  55.863  1.00  0.00    +0.293 HD
ENDBRANCH  17  21
ENDBRANCH   3  12
TORSDOF 5
ENDMDL
MODEL 9
REMARK VINA RESULT:    -6.930      3.428      4.987
REMARK INTER + INTRA:          -9.435
REMARK INTER:                  -8.546
REMARK INTRA:                  -0.889
REMARK UNBOUND:                -0.884
REMARK SMILES O=[N+]([O-])c1cc(-c2ccc(O)c([N+](=O)[O-])c2)ccc1O
REMARK SMILES IDX 4 1 5 2 6 3 17 4 18 5 19 6 2 7 1 8 3 9 20 10 7 12 8 13 16 14
REMARK SMILES IDX 9 15 12 16 10 17 13 18 14 19 15 20 11 21
REMARK H PARENT 20 11 11 22
ROOT
ATOM      1  C   UNL     1      24.082  -0.608  54.188  1.00  0.00    +0.311 A 
ATOM      2  C   UNL     1      24.006   0.214  53.048  1.00  0.00    +0.098 A 
ATOM      3  C   UNL     1      22.766   0.505  52.454  1.00  0.00    -0.011 A 
ATOM      4  C   UNL     1      21.611  -0.048  53.032  1.00  0.00    +0.013 A 
ATOM      5  C   UNL     1      21.686  -0.864  54.164  1.00  0.00    +0.054 A 
ATOM      6  C   UNL     1      22.918  -1.148  54.747  1.00  0.00    +0.194 A 
ENDROOT
BRANCH   1   7
ATOM      7  N   UNL     1      25.397  -0.886  54.769  1.00  0.00    +0.066 N 
ATOM      8  O   UNL     1      25.484  -0.896  56.009  1.00  0.00    -0.258 OA
ATOM      9  O   UNL     1      26.344  -1.093  54.000  1.00  0.00    -0.258 OA
ENDBRANCH   1   7
BRANCH   6  10
ATOM     10  O   UNL     1      22.868  -1.957  55.848  1.00  0.00    -0.502 OA
ATOM     11  H   UNL     1      21.996  -2.404  55.897  1.00  0.00    +0.293 HD
ENDBRANCH   6  10
BRANCH   3  12
ATOM     12  C   UNL     1      22.678   1.362  51.260  1.00  0.00    -0.011 A 
ATOM     13  C   UNL     1      21.875   0.998  50.168  1.00  0.00    +0.013 A 
ATOM     14  C   UNL     1      23.394   2.570  51.181  1.00  0.00    +0.098 A 
ATOM     15  C   UNL     1      21.786   1.807  49.030  1.00  0.00    +0.054 A 
ATOM     16  C   UNL     1      23.304   3.385  50.037  1.00  0.00    +0.311 A 
ATOM     17  C   UNL     1      22.497   3.002  48.960  1.00  0.00    +0.194 A 
BRANCH  16  18
ATOM     18  N   UNL     1      24.066   4.635  50.002  1.00  0.00    +0.066 N 
ATOM     19  O   UNL     1      24.025   5.358  51.012  1.00  0.00    -0.258 OA
ATOM     20  O   UNL     1      24.706   4.901  48.975  1.00  0.00    -0.258 OA
ENDBRANCH  16  18
BRANCH  17  21
ATOM     21  O   UNL     1      22.333   3.710  47.801  1.00  0.00    -0.502 OA
ATOM     22  H   UNL     1      22.036   4.623  48.003  1.00  0.00    +0.293 HD
ENDBRANCH  17  21
ENDBRANCH   3  12
TORSDOF 5
ENDMDL
