MODEL 1
REMARK VINA RESULT:    -8.201      0.000      0.000
REMARK INTER + INTRA:         -13.287
REMARK INTER:                 -11.557
REMARK INTRA:                  -1.730
REMARK UNBOUND:                -1.730
REMARK SMILES CCN(C)c1ccc(C/N=N/Nc2ccc3ncnc(-c4ccccc4)c3c2)[nH]1
REMARK SMILES IDX 9 1 8 2 5 3 6 4 29 5 7 6 3 8 4 9 2 10 1 11 10 12 11 13 12 14
REMARK SMILES IDX 13 16 14 17 28 18 15 19 27 20 16 21 20 22 17 23 19 24 18 25
REMARK SMILES IDX 21 26 22 27 26 28 23 29 25 30 24 31
REMARK H PARENT 29 7 12 15
ROOT
ATOM      1  C   UNL     1      23.984  -1.260  55.874  1.00  0.00    +0.222 C 
ENDROOT
BRANCH   1   2
ATOM      2  C   UNL     1      24.852  -0.733  54.784  1.00  0.00    +0.040 A 
ATOM      3  C   UNL     1      26.703   0.211  53.890  1.00  0.00    +0.105 A 
ATOM      4  C   UNL     1      25.804  -0.027  52.868  1.00  0.00    +0.047 A 
ATOM      5  N   UNL     1      26.093  -0.202  55.051  1.00  0.00    -0.344 N 
ATOM      6  C   UNL     1      24.650  -0.634  53.422  1.00  0.00    +0.027 A 
ATOM      7  H   UNL     1      26.485  -0.092  55.974  1.00  0.00    +0.168 HD
BRANCH   3   8
ATOM      8  N   UNL     1      27.946   0.774  53.893  1.00  0.00    -0.362 N 
ATOM      9  C   UNL     1      28.150   2.045  53.202  1.00  0.00    +0.145 C 
BRANCH   8  10
ATOM     10  C   UNL     1      29.154  -0.007  54.181  1.00  0.00    +0.114 C 
ATOM     11  C   UNL     1      29.180  -1.269  53.329  1.00  0.00    +0.027 C 
ENDBRANCH   8  10
ENDBRANCH   3   8
ENDBRANCH   1   2
BRANCH   1  12
ATOM     12  N   UNL     1      22.730  -1.753  55.287  1.00  0.00    -0.165 NA
ATOM     13  N   UNL     1      21.839  -0.885  55.248  1.00  0.00    -0.074 NA
BRANCH  13  14
ATOM     14  N   UNL     1      20.792  -1.483  54.650  1.00  0.00    -0.260 N 
ATOM     15  H   UNL     1      20.182  -1.991  55.282  1.00  0.00    +0.192 HD
BRANCH  14  16
ATOM     16  C   UNL     1      20.168  -0.855  53.561  1.00  0.00    +0.059 A 
ATOM     17  C   UNL     1      18.857  -1.134  53.177  1.00  0.00    +0.030 A 
ATOM     18  C   UNL     1      20.832   0.180  52.892  1.00  0.00    +0.040 A 
ATOM     19  C   UNL     1      18.249  -0.426  52.133  1.00  0.00    +0.031 A 
ATOM     20  C   UNL     1      20.223   0.892  51.824  1.00  0.00    +0.029 A 
ATOM     21  C   UNL     1      18.910   0.585  51.449  1.00  0.00    +0.074 A 
ATOM     22  C   UNL     1      20.823   1.925  51.082  1.00  0.00    +0.081 A 
ATOM     23  N   UNL     1      18.265   1.226  50.469  1.00  0.00    -0.236 NA
ATOM     24  N   UNL     1      20.185   2.592  50.097  1.00  0.00    -0.236 NA
ATOM     25  C   UNL     1      18.933   2.201  49.841  1.00  0.00    +0.223 A 
BRANCH  22  26
ATOM     26  C   UNL     1      22.206   2.376  51.308  1.00  0.00    +0.001 A 
ATOM     27  C   UNL     1      22.557   3.072  52.478  1.00  0.00    +0.010 A 
ATOM     28  C   UNL     1      23.207   2.116  50.356  1.00  0.00    +0.010 A 
ATOM     29  C   UNL     1      23.867   3.511  52.681  1.00  0.00    +0.001 A 
ATOM     30  C   UNL     1      24.516   2.558  50.558  1.00  0.00    +0.001 A 
ATOM     31  C   UNL     1      24.845   3.256  51.719  1.00  0.00    +0.000 A 
ENDBRANCH  22  26
ENDBRANCH  14  16
ENDBRANCH  13  14
ENDBRANCH   1  12
TORSDOF 7
ENDMDL
MODEL 2
REMARK VINA RESULT:    -7.663      2.285      5.624
REMARK INTER + INTRA:         -12.529
REMARK INTER:                 -10.742
REMARK INTRA:                  -1.787
REMARK UNBOUND:                -1.730
REMARK SMILES CCN(C)c1ccc(C/N=N/Nc2ccc3ncnc(-c4ccccc4)c3c2)[nH]1
REMARK SMILES IDX 9 1 8 2 5 3 6 4 29 5 7 6 3 8 4 9 2 10 1 11 10 12 11 13 12 14
REMARK SMILES IDX 13 16 14 17 28 18 15 19 27 20 16 21 20 22 17 23 19 24 18 25
REMARK SMILES IDX 21 26 22 27 26 28 23 29 25 30 24 31
REMARK H PARENT 29 7 12 15
ROOT
ATOM      1  C   UNL     1      20.527   4.904  50.010  1.00  0.00    +0.222 C 
ENDROOT
BRANCH   1   2
ATOM      2  C   UNL     1      21.865   5.035  50.651  1.00  0.00    +0.040 A 
ATOM      3  C   UNL     1      24.109   5.312  50.713  1.00  0.00    +0.105 A 
ATOM      4  C   UNL     1      23.659   5.150  52.009  1.00  0.00    +0.047 A 
ATOM      5  N   UNL     1      23.005   5.212  49.900  1.00  0.00    -0.344 N 
ATOM      6  C   UNL     1      22.251   4.994  51.975  1.00  0.00    +0.027 A 
ATOM      7  H   UNL     1      23.032   5.225  48.892  1.00  0.00    +0.168 HD
BRANCH   3   8
ATOM      8  N   UNL     1      25.362   5.491  50.203  1.00  0.00    -0.362 N 
ATOM      9  C   UNL     1      25.806   6.843  49.871  1.00  0.00    +0.145 C 
BRANCH   8  10
ATOM     10  C   UNL     1      26.117   4.393  49.590  1.00  0.00    +0.114 C 
ATOM     11  C   UNL     1      27.263   4.946  48.753  1.00  0.00    +0.027 C 
ENDBRANCH   8  10
ENDBRANCH   3   8
ENDBRANCH   1   2
BRANCH   1  12
ATOM     12  N   UNL     1      20.106   3.498  50.070  1.00  0.00    -0.165 NA
ATOM     13  N   UNL     1      21.002   2.708  49.718  1.00  0.00    -0.074 NA
BRANCH  13  14
ATOM     14  N   UNL     1      20.471   1.482  49.874  1.00  0.00    -0.260 N 
ATOM     15  H   UNL     1      20.516   0.896  49.047  1.00  0.00    +0.192 HD
BRANCH  14  16
ATOM     16  C   UNL     1      20.608   0.822  51.106  1.00  0.00    +0.059 A 
ATOM     17  C   UNL     1      19.539   0.209  51.758  1.00  0.00    +0.030 A 
ATOM     18  C   UNL     1      21.883   0.662  51.661  1.00  0.00    +0.040 A 
ATOM     19  C   UNL     1      19.738  -0.507  52.946  1.00  0.00    +0.031 A 
ATOM     20  C   UNL     1      22.087  -0.052  52.872  1.00  0.00    +0.029 A 
ATOM     21  C   UNL     1      20.996  -0.649  53.515  1.00  0.00    +0.074 A 
ATOM     22  C   UNL     1      23.325  -0.240  53.513  1.00  0.00    +0.081 A 
ATOM     23  N   UNL     1      21.114  -1.353  54.645  1.00  0.00    -0.236 NA
ATOM     24  N   UNL     1      23.466  -0.958  54.648  1.00  0.00    -0.236 NA
ATOM     25  C   UNL     1      22.345  -1.475  55.157  1.00  0.00    +0.223 A 
BRANCH  22  26
ATOM     26  C   UNL     1      24.584   0.329  53.007  1.00  0.00    +0.001 A 
ATOM     27  C   UNL     1      25.607  -0.500  52.515  1.00  0.00    +0.010 A 
ATOM     28  C   UNL     1      24.789   1.720  53.003  1.00  0.00    +0.010 A 
ATOM     29  C   UNL     1      26.806   0.045  52.050  1.00  0.00    +0.001 A 
ATOM     30  C   UNL     1      25.989   2.265  52.541  1.00  0.00    +0.001 A 
ATOM     31  C   UNL     1      26.997   1.426  52.067  1.00  0.00    +0.000 A 
ENDBRANCH  22  26
ENDBRANCH  14  16
ENDBRANCH  13  14
ENDBRANCH   1  12
TORSDOF 7
ENDMDL
MODEL 3
REMARK VINA RESULT:    -7.625      2.636      6.428
REMARK INTER + INTRA:         -12.475
REMARK INTER:                 -10.577
REMARK INTRA:                  -1.898
REMARK UNBOUND:                -1.730
REMARK SMILES CCN(C)c1ccc(C/N=N/Nc2ccc3ncnc(-c4ccccc4)c3c2)[nH]1
REMARK SMILES IDX 9 1 8 2 5 3 6 4 29 5 7 6 3 8 4 9 2 10 1 11 10 12 11 13 12 14
REMARK SMILES IDX 13 16 14 17 28 18 15 19 27 20 16 21 20 22 17 23 19 24 18 25
REMARK SMILES IDX 21 26 22 27 26 28 23 29 25 30 24 31
REMARK H PARENT 29 7 12 15
ROOT
ATOM      1  C   UNL     1      26.646   3.277  49.719  1.00  0.00    +0.222 C 
ENDROOT
BRANCH   1   2
ATOM      2  C   UNL     1      25.260   3.822  49.738  1.00  0.00    +0.040 A 
ATOM      3  C   UNL     1      23.621   5.283  50.280  1.00  0.00    +0.105 A 
ATOM      4  C   UNL     1      23.060   4.261  49.538  1.00  0.00    +0.047 A 
ATOM      5  N   UNL     1      24.956   4.982  50.413  1.00  0.00    -0.344 N 
ATOM      6  C   UNL     1      24.087   3.353  49.182  1.00  0.00    +0.027 A 
ATOM      7  H   UNL     1      25.612   5.516  50.962  1.00  0.00    +0.168 HD
BRANCH   3   8
ATOM      8  N   UNL     1      23.073   6.390  50.861  1.00  0.00    -0.362 N 
ATOM      9  C   UNL     1      21.646   6.392  51.175  1.00  0.00    +0.145 C 
BRANCH   8  10
ATOM     10  C   UNL     1      23.726   7.701  50.806  1.00  0.00    +0.114 C 
ATOM     11  C   UNL     1      23.275   8.462  49.567  1.00  0.00    +0.027 C 
ENDBRANCH   8  10
ENDBRANCH   3   8
ENDBRANCH   1   2
BRANCH   1  12
ATOM     12  N   UNL     1      26.878   2.521  50.957  1.00  0.00    -0.165 NA
ATOM     13  N   UNL     1      25.893   2.524  51.718  1.00  0.00    -0.074 NA
BRANCH  13  14
ATOM     14  N   UNL     1      26.256   1.760  52.765  1.00  0.00    -0.260 N 
ATOM     15  H   UNL     1      26.866   2.223  53.431  1.00  0.00    +0.192 HD
BRANCH  14  16
ATOM     16  C   UNL     1      25.337   0.844  53.303  1.00  0.00    +0.059 A 
ATOM     17  C   UNL     1      25.665  -0.040  54.329  1.00  0.00    +0.030 A 
ATOM     18  C   UNL     1      24.002   0.886  52.885  1.00  0.00    +0.040 A 
ATOM     19  C   UNL     1      24.694  -0.881  54.889  1.00  0.00    +0.031 A 
ATOM     20  C   UNL     1      23.017   0.025  53.441  1.00  0.00    +0.029 A 
ATOM     21  C   UNL     1      23.374  -0.863  54.462  1.00  0.00    +0.074 A 
ATOM     22  C   UNL     1      21.663  -0.020  53.064  1.00  0.00    +0.081 A 
ATOM     23  N   UNL     1      22.498  -1.687  55.048  1.00  0.00    -0.236 NA
ATOM     24  N   UNL     1      20.761  -0.836  53.651  1.00  0.00    -0.236 NA
ATOM     25  C   UNL     1      21.233  -1.633  54.614  1.00  0.00    +0.223 A 
BRANCH  22  26
ATOM     26  C   UNL     1      21.100   0.817  51.993  1.00  0.00    +0.001 A 
ATOM     27  C   UNL     1      21.226   0.446  50.643  1.00  0.00    +0.010 A 
ATOM     28  C   UNL     1      20.420   2.009  52.300  1.00  0.00    +0.010 A 
ATOM     29  C   UNL     1      20.704   1.252  49.629  1.00  0.00    +0.001 A 
ATOM     30  C   UNL     1      19.899   2.816  51.286  1.00  0.00    +0.001 A 
ATOM     31  C   UNL     1      20.044   2.438  49.952  1.00  0.00    +0.000 A 
ENDBRANCH  22  26
ENDBRANCH  14  16
ENDBRANCH  13  14
ENDBRANCH   1  12
TORSDOF 7
ENDMDL
MODEL 4
REMARK VINA RESULT:    -7.545      3.887      7.071
REMARK INTER + INTRA:         -12.363
REMARK INTER:                 -11.193
REMARK INTRA:                  -1.170
REMARK UNBOUND:                -1.730
REMARK SMILES CCN(C)c1ccc(C/N=N/Nc2ccc3ncnc(-c4ccccc4)c3c2)[nH]1
REMARK SMILES IDX 9 1 8 2 5 3 6 4 29 5 7 6 3 8 4 9 2 10 1 11 10 12 11 13 12 14
REMARK SMILES IDX 13 16 14 17 28 18 15 19 27 20 16 21 20 22 17 23 19 24 18 25
REMARK SMILES IDX 21 26 22 27 26 28 23 29 25 30 24 31
REMARK H PARENT 29 7 12 15
ROOT
ATOM      1  C   UNL     1      26.527   3.270  49.485  1.00  0.00    +0.222 C 
ENDROOT
BRANCH   1   2
ATOM      2  C   UNL     1      26.887   4.630  48.997  1.00  0.00    +0.040 A 
ATOM      3  C   UNL     1      26.518   6.790  48.435  1.00  0.00    +0.105 A 
ATOM      4  C   UNL     1      27.846   6.500  48.185  1.00  0.00    +0.047 A 
ATOM      5  N   UNL     1      25.947   5.630  48.904  1.00  0.00    -0.344 N 
ATOM      6  C   UNL     1      28.085   5.153  48.552  1.00  0.00    +0.027 A 
ATOM      7  H   UNL     1      24.966   5.518  49.112  1.00  0.00    +0.168 HD
BRANCH   3   8
ATOM      8  N   UNL     1      25.787   7.928  48.255  1.00  0.00    -0.362 N 
ATOM      9  C   UNL     1      25.547   8.804  49.400  1.00  0.00    +0.145 C 
BRANCH   8  10
ATOM     10  C   UNL     1      24.897   8.108  47.104  1.00  0.00    +0.114 C 
ATOM     11  C   UNL     1      25.668   8.689  45.928  1.00  0.00    +0.027 C 
ENDBRANCH   8  10
ENDBRANCH   3   8
ENDBRANCH   1   2
BRANCH   1  12
ATOM     12  N   UNL     1      25.099   3.251  49.833  1.00  0.00    -0.165 NA
ATOM     13  N   UNL     1      24.862   3.779  50.935  1.00  0.00    -0.074 NA
BRANCH  13  14
ATOM     14  N   UNL     1      23.525   3.718  51.073  1.00  0.00    -0.260 N 
ATOM     15  H   UNL     1      23.005   3.940  50.230  1.00  0.00    +0.192 HD
BRANCH  14  16
ATOM     16  C   UNL     1      22.961   2.738  51.905  1.00  0.00    +0.059 A 
ATOM     17  C   UNL     1      21.586   2.607  52.093  1.00  0.00    +0.030 A 
ATOM     18  C   UNL     1      23.789   1.770  52.486  1.00  0.00    +0.040 A 
ATOM     19  C   UNL     1      21.064   1.564  52.870  1.00  0.00    +0.031 A 
ATOM     20  C   UNL     1      23.265   0.719  53.285  1.00  0.00    +0.029 A 
ATOM     21  C   UNL     1      21.881   0.616  53.469  1.00  0.00    +0.074 A 
ATOM     22  C   UNL     1      24.022  -0.277  53.926  1.00  0.00    +0.081 A 
ATOM     23  N   UNL     1      21.314  -0.357  54.190  1.00  0.00    -0.236 NA
ATOM     24  N   UNL     1      23.468  -1.275  54.648  1.00  0.00    -0.236 NA
ATOM     25  C   UNL     1      22.136  -1.258  54.744  1.00  0.00    +0.223 A 
BRANCH  22  26
ATOM     26  C   UNL     1      25.492  -0.326  53.873  1.00  0.00    +0.001 A 
ATOM     27  C   UNL     1      26.156  -0.959  52.807  1.00  0.00    +0.010 A 
ATOM     28  C   UNL     1      26.264   0.264  54.888  1.00  0.00    +0.010 A 
ATOM     29  C   UNL     1      27.551  -1.016  52.769  1.00  0.00    +0.001 A 
ATOM     30  C   UNL     1      27.659   0.205  54.851  1.00  0.00    +0.001 A 
ATOM     31  C   UNL     1      28.301  -0.437  53.793  1.00  0.00    +0.000 A 
ENDBRANCH  22  26
ENDBRANCH  14  16
ENDBRANCH  13  14
ENDBRANCH   1  12
TORSDOF 7
ENDMDL
MODEL 5
REMARK VINA RESULT:    -7.536      2.372      6.177
REMARK INTER + INTRA:         -12.350
REMARK INTER:                 -10.698
REMARK INTRA:                  -1.652
REMARK UNBOUND:                -1.730
REMARK SMILES CCN(C)c1ccc(C/N=N/Nc2ccc3ncnc(-c4ccccc4)c3c2)[nH]1
REMARK SMILES IDX 9 1 8 2 5 3 6 4 29 5 7 6 3 8 4 9 2 10 1 11 10 12 11 13 12 14
REMARK SMILES IDX 13 16 14 17 28 18 15 19 27 20 16 21 20 22 17 23 19 24 18 25
REMARK SMILES IDX 21 26 22 27 26 28 23 29 25 30 24 31
REMARK H PARENT 29 7 12 15
ROOT
ATOM      1  C   UNL     1      22.379   2.202  47.801  1.00  0.00    +0.222 C 
ENDROOT
BRANCH   1   2
ATOM      2  C   UNL     1      23.143   3.158  48.649  1.00  0.00    +0.040 A 
ATOM      3  C   UNL     1      23.624   5.159  49.589  1.00  0.00    +0.105 A 
ATOM      4  C   UNL     1      24.580   4.249  49.999  1.00  0.00    +0.047 A 
ATOM      5  N   UNL     1      22.774   4.480  48.748  1.00  0.00    -0.344 N 
ATOM      6  C   UNL     1      24.272   2.991  49.425  1.00  0.00    +0.027 A 
ATOM      7  H   UNL     1      22.011   4.903  48.241  1.00  0.00    +0.168 HD
BRANCH   3   8
ATOM      8  N   UNL     1      23.466   6.489  49.849  1.00  0.00    -0.362 N 
ATOM      9  C   UNL     1      24.249   7.100  50.922  1.00  0.00    +0.145 C 
BRANCH   8  10
ATOM     10  C   UNL     1      22.281   7.233  49.408  1.00  0.00    +0.114 C 
ATOM     11  C   UNL     1      21.280   7.351  50.549  1.00  0.00    +0.027 C 
ENDBRANCH   8  10
ENDBRANCH   3   8
ENDBRANCH   1   2
BRANCH   1  12
ATOM     12  N   UNL     1      21.376   1.523  48.633  1.00  0.00    -0.165 NA
ATOM     13  N   UNL     1      21.286   2.008  49.775  1.00  0.00    -0.074 NA
BRANCH  13  14
ATOM     14  N   UNL     1      20.306   1.309  50.377  1.00  0.00    -0.260 N 
ATOM     15  H   UNL     1      19.671   0.842  49.739  1.00  0.00    +0.192 HD
BRANCH  14  16
ATOM     16  C   UNL     1      20.575   0.639  51.581  1.00  0.00    +0.059 A 
ATOM     17  C   UNL     1      19.596  -0.044  52.301  1.00  0.00    +0.030 A 
ATOM     18  C   UNL     1      21.897   0.541  52.031  1.00  0.00    +0.040 A 
ATOM     19  C   UNL     1      19.926  -0.766  53.455  1.00  0.00    +0.031 A 
ATOM     20  C   UNL     1      22.235  -0.179  53.209  1.00  0.00    +0.029 A 
ATOM     21  C   UNL     1      21.231  -0.846  53.922  1.00  0.00    +0.074 A 
ATOM     22  C   UNL     1      23.527  -0.307  53.748  1.00  0.00    +0.081 A 
ATOM     23  N   UNL     1      21.476  -1.561  55.025  1.00  0.00    -0.236 NA
ATOM     24  N   UNL     1      23.796  -1.033  54.854  1.00  0.00    -0.236 NA
ATOM     25  C   UNL     1      22.748  -1.621  55.438  1.00  0.00    +0.223 A 
BRANCH  22  26
ATOM     26  C   UNL     1      24.710   0.340  53.158  1.00  0.00    +0.001 A 
ATOM     27  C   UNL     1      25.710  -0.419  52.527  1.00  0.00    +0.010 A 
ATOM     28  C   UNL     1      24.861   1.737  53.211  1.00  0.00    +0.010 A 
ATOM     29  C   UNL     1      26.838   0.199  51.982  1.00  0.00    +0.001 A 
ATOM     30  C   UNL     1      25.990   2.355  52.668  1.00  0.00    +0.001 A 
ATOM     31  C   UNL     1      26.978   1.585  52.057  1.00  0.00    +0.000 A 
ENDBRANCH  22  26
ENDBRANCH  14  16
ENDBRANCH  13  14
ENDBRANCH   1  12
TORSDOF 7
ENDMDL
MODEL 6
REMARK VINA RESULT:    -7.506      2.853      5.229
REMARK INTER + INTRA:         -12.309
REMARK INTER:                 -10.528
REMARK INTRA:                  -1.781
REMARK UNBOUND:                -1.730
REMARK SMILES CCN(C)c1ccc(C/N=N/Nc2ccc3ncnc(-c4ccccc4)c3c2)[nH]1
REMARK SMILES IDX 9 1 8 2 5 3 6 4 29 5 7 6 3 8 4 9 2 10 1 11 10 12 11 13 12 14
REMARK SMILES IDX 13 16 14 17 28 18 15 19 27 20 16 21 20 22 17 23 19 24 18 25
REMARK SMILES IDX 21 26 22 27 26 28 23 29 25 30 24 31
REMARK H PARENT 29 7 12 15
ROOT
ATOM      1  C   UNL     1      26.705   2.151  51.341  1.00  0.00    +0.222 C 
ENDROOT
BRANCH   1   2
ATOM      2  C   UNL     1      25.930   3.148  50.551  1.00  0.00    +0.040 A 
ATOM      3  C   UNL     1      25.581   5.094  49.452  1.00  0.00    +0.105 A 
ATOM      4  C   UNL     1      24.411   4.360  49.410  1.00  0.00    +0.047 A 
ATOM      5  N   UNL     1      26.484   4.350  50.174  1.00  0.00    -0.344 N 
ATOM      6  C   UNL     1      24.631   3.133  50.084  1.00  0.00    +0.027 A 
ATOM      7  H   UNL     1      27.410   4.660  50.426  1.00  0.00    +0.168 HD
BRANCH   3   8
ATOM      8  N   UNL     1      25.895   6.329  48.964  1.00  0.00    -0.362 N 
ATOM      9  C   UNL     1      27.293   6.644  48.679  1.00  0.00    +0.145 C 
BRANCH   8  10
ATOM     10  C   UNL     1      24.989   7.474  49.102  1.00  0.00    +0.114 C 
ATOM     11  C   UNL     1      24.732   7.767  50.574  1.00  0.00    +0.027 C 
ENDBRANCH   8  10
ENDBRANCH   3   8
ENDBRANCH   1   2
BRANCH   1  12
ATOM     12  N   UNL     1      25.914   1.756  52.515  1.00  0.00    -0.165 NA
ATOM     13  N   UNL     1      25.476   0.594  52.436  1.00  0.00    -0.074 NA
BRANCH  13  14
ATOM     14  N   UNL     1      24.826   0.384  53.594  1.00  0.00    -0.260 N 
ATOM     15  H   UNL     1      25.067   1.034  54.335  1.00  0.00    +0.192 HD
BRANCH  14  16
ATOM     16  C   UNL     1      23.492  -0.054  53.568  1.00  0.00    +0.059 A 
ATOM     17  C   UNL     1      22.944  -0.867  54.559  1.00  0.00    +0.030 A 
ATOM     18  C   UNL     1      22.630   0.431  52.577  1.00  0.00    +0.040 A 
ATOM     19  C   UNL     1      21.587  -1.214  54.533  1.00  0.00    +0.031 A 
ATOM     20  C   UNL     1      21.256   0.070  52.540  1.00  0.00    +0.029 A 
ATOM     21  C   UNL     1      20.732  -0.758  53.540  1.00  0.00    +0.074 A 
ATOM     22  C   UNL     1      20.327   0.488  51.570  1.00  0.00    +0.081 A 
ATOM     23  N   UNL     1      19.445  -1.121  53.582  1.00  0.00    -0.236 NA
ATOM     24  N   UNL     1      19.022   0.141  51.602  1.00  0.00    -0.236 NA
ATOM     25  C   UNL     1      18.651  -0.652  52.611  1.00  0.00    +0.223 A 
BRANCH  22  26
ATOM     26  C   UNL     1      20.689   1.340  50.427  1.00  0.00    +0.001 A 
ATOM     27  C   UNL     1      20.400   2.716  50.430  1.00  0.00    +0.010 A 
ATOM     28  C   UNL     1      21.336   0.793  49.305  1.00  0.00    +0.010 A 
ATOM     29  C   UNL     1      20.733   3.517  49.336  1.00  0.00    +0.001 A 
ATOM     30  C   UNL     1      21.666   1.595  48.210  1.00  0.00    +0.001 A 
ATOM     31  C   UNL     1      21.362   2.955  48.225  1.00  0.00    +0.000 A 
ENDBRANCH  22  26
ENDBRANCH  14  16
ENDBRANCH  13  14
ENDBRANCH   1  12
TORSDOF 7
ENDMDL
MODEL 7
REMARK VINA RESULT:    -7.454      4.169      6.939
REMARK INTER + INTRA:         -12.234
REMARK INTER:                 -11.297
REMARK INTRA:                  -0.938
REMARK UNBOUND:                -1.730
REMARK SMILES CCN(C)c1ccc(C/N=N/Nc2ccc3ncnc(-c4ccccc4)c3c2)[nH]1
REMARK SMILES IDX 9 1 8 2 5 3 6 4 29 5 7 6 3 8 4 9 2 10 1 11 10 12 11 13 12 14
REMARK SMILES IDX 13 16 14 17 28 18 15 19 27 20 16 21 20 22 17 23 19 24 18 25
REMARK SMILES IDX 21 26 22 27 26 28 23 29 25 30 24 31
REMARK H PARENT 29 7 12 15
ROOT
ATOM      1  C   UNL     1      26.456   3.562  49.609  1.00  0.00    +0.222 C 
ENDROOT
BRANCH   1   2
ATOM      2  C   UNL     1      26.899   4.854  49.015  1.00  0.00    +0.040 A 
ATOM      3  C   UNL     1      28.387   6.358  48.214  1.00  0.00    +0.105 A 
ATOM      4  C   UNL     1      27.127   6.923  48.155  1.00  0.00    +0.047 A 
ATOM      5  N   UNL     1      28.228   5.108  48.766  1.00  0.00    -0.344 N 
ATOM      6  C   UNL     1      26.191   5.977  48.640  1.00  0.00    +0.027 A 
ATOM      7  H   UNL     1      28.986   4.483  48.993  1.00  0.00    +0.168 HD
BRANCH   3   8
ATOM      8  N   UNL     1      29.616   6.844  47.877  1.00  0.00    -0.362 N 
ATOM      9  C   UNL     1      30.804   6.258  48.495  1.00  0.00    +0.145 C 
BRANCH   8  10
ATOM     10  C   UNL     1      29.790   8.165  47.266  1.00  0.00    +0.114 C 
ATOM     11  C   UNL     1      30.020   8.026  45.767  1.00  0.00    +0.027 C 
ENDBRANCH   8  10
ENDBRANCH   3   8
ENDBRANCH   1   2
BRANCH   1  12
ATOM     12  N   UNL     1      25.196   3.778  50.333  1.00  0.00    -0.165 NA
ATOM     13  N   UNL     1      24.352   2.890  50.114  1.00  0.00    -0.074 NA
BRANCH  13  14
ATOM     14  N   UNL     1      23.294   3.214  50.879  1.00  0.00    -0.260 N 
ATOM     15  H   UNL     1      22.578   3.750  50.400  1.00  0.00    +0.192 HD
BRANCH  14  16
ATOM     16  C   UNL     1      22.839   2.307  51.849  1.00  0.00    +0.059 A 
ATOM     17  C   UNL     1      21.490   2.146  52.160  1.00  0.00    +0.030 A 
ATOM     18  C   UNL     1      23.752   1.436  52.456  1.00  0.00    +0.040 A 
ATOM     19  C   UNL     1      21.076   1.172  53.078  1.00  0.00    +0.031 A 
ATOM     20  C   UNL     1      23.337   0.455  53.397  1.00  0.00    +0.029 A 
ATOM     21  C   UNL     1      21.977   0.322  53.702  1.00  0.00    +0.074 A 
ATOM     22  C   UNL     1      24.185  -0.441  54.072  1.00  0.00    +0.081 A 
ATOM     23  N   UNL     1      21.511  -0.591  54.561  1.00  0.00    -0.236 NA
ATOM     24  N   UNL     1      23.733  -1.377  54.934  1.00  0.00    -0.236 NA
ATOM     25  C   UNL     1      22.412  -1.398  55.135  1.00  0.00    +0.223 A 
BRANCH  22  26
ATOM     26  C   UNL     1      25.647  -0.442  53.906  1.00  0.00    +0.001 A 
ATOM     27  C   UNL     1      26.259  -1.197  52.890  1.00  0.00    +0.010 A 
ATOM     28  C   UNL     1      26.465   0.319  54.760  1.00  0.00    +0.010 A 
ATOM     29  C   UNL     1      27.648  -1.207  52.746  1.00  0.00    +0.001 A 
ATOM     30  C   UNL     1      27.854   0.307  54.617  1.00  0.00    +0.001 A 
ATOM     31  C   UNL     1      28.444  -0.457  53.612  1.00  0.00    +0.000 A 
ENDBRANCH  22  26
ENDBRANCH  14  16
ENDBRANCH  13  14
ENDBRANCH   1  12
TORSDOF 7
ENDMDL
MODEL 8
REMARK VINA RESULT:    -7.433      2.014      6.435
REMARK INTER + INTRA:         -12.205
REMARK INTER:                 -10.398
REMARK INTRA:                  -1.807
REMARK UNBOUND:                -1.730
REMARK SMILES CCN(C)c1ccc(C/N=N/Nc2ccc3ncnc(-c4ccccc4)c3c2)[nH]1
REMARK SMILES IDX 9 1 8 2 5 3 6 4 29 5 7 6 3 8 4 9 2 10 1 11 10 12 11 13 12 14
REMARK SMILES IDX 13 16 14 17 28 18 15 19 27 20 16 21 20 22 17 23 19 24 18 25
REMARK SMILES IDX 21 26 22 27 26 28 23 29 25 30 24 31
REMARK H PARENT 29 7 12 15
ROOT
ATOM      1  C   UNL     1      18.698   0.788  51.095  1.00  0.00    +0.222 C 
ENDROOT
BRANCH   1   2
ATOM      2  C   UNL     1      19.733   1.151  50.088  1.00  0.00    +0.040 A 
ATOM      3  C   UNL     1      20.577   2.233  48.289  1.00  0.00    +0.105 A 
ATOM      4  C   UNL     1      21.549   1.377  48.773  1.00  0.00    +0.047 A 
ATOM      5  N   UNL     1      19.471   2.060  49.088  1.00  0.00    -0.344 N 
ATOM      6  C   UNL     1      21.028   0.710  49.910  1.00  0.00    +0.027 A 
ATOM      7  H   UNL     1      18.580   2.507  48.937  1.00  0.00    +0.168 HD
BRANCH   3   8
ATOM      8  N   UNL     1      20.568   3.087  47.225  1.00  0.00    -0.362 N 
ATOM      9  C   UNL     1      19.325   3.280  46.482  1.00  0.00    +0.145 C 
BRANCH   8  10
ATOM     10  C   UNL     1      21.800   3.492  46.541  1.00  0.00    +0.114 C 
ATOM     11  C   UNL     1      22.346   4.774  47.156  1.00  0.00    +0.027 C 
ENDBRANCH   8  10
ENDBRANCH   3   8
ENDBRANCH   1   2
BRANCH   1  12
ATOM     12  N   UNL     1      19.293  -0.123  52.083  1.00  0.00    -0.165 NA
ATOM     13  N   UNL     1      19.703   0.466  53.100  1.00  0.00    -0.074 NA
BRANCH  13  14
ATOM     14  N   UNL     1      20.168  -0.507  53.905  1.00  0.00    -0.260 N 
ATOM     15  H   UNL     1      19.696  -1.399  53.801  1.00  0.00    +0.192 HD
BRANCH  14  16
ATOM     16  C   UNL     1      21.541  -0.565  54.196  1.00  0.00    +0.059 A 
ATOM     17  C   UNL     1      22.099  -1.545  55.014  1.00  0.00    +0.030 A 
ATOM     18  C   UNL     1      22.416   0.319  53.554  1.00  0.00    +0.040 A 
ATOM     19  C   UNL     1      23.484  -1.612  55.213  1.00  0.00    +0.031 A 
ATOM     20  C   UNL     1      23.821   0.263  53.763  1.00  0.00    +0.029 A 
ATOM     21  C   UNL     1      24.356  -0.723  54.599  1.00  0.00    +0.074 A 
ATOM     22  C   UNL     1      24.769   1.124  53.182  1.00  0.00    +0.081 A 
ATOM     23  N   UNL     1      25.668  -0.850  54.826  1.00  0.00    -0.236 NA
ATOM     24  N   UNL     1      26.098   1.005  53.389  1.00  0.00    -0.236 NA
ATOM     25  C   UNL     1      26.476   0.020  54.209  1.00  0.00    +0.223 A 
BRANCH  22  26
ATOM     26  C   UNL     1      24.402   2.239  52.294  1.00  0.00    +0.001 A 
ATOM     27  C   UNL     1      23.836   3.418  52.810  1.00  0.00    +0.010 A 
ATOM     28  C   UNL     1      24.615   2.148  50.907  1.00  0.00    +0.010 A 
ATOM     29  C   UNL     1      23.476   4.467  51.961  1.00  0.00    +0.001 A 
ATOM     30  C   UNL     1      24.253   3.197  50.059  1.00  0.00    +0.001 A 
ATOM     31  C   UNL     1      23.681   4.353  50.586  1.00  0.00    +0.000 A 
ENDBRANCH  22  26
ENDBRANCH  14  16
ENDBRANCH  13  14
ENDBRANCH   1  12
TORSDOF 7
ENDMDL
MODEL 9
REMARK VINA RESULT:    -7.308      4.864      8.021
REMARK INTER + INTRA:         -12.030
REMARK INTER:                 -11.050
REMARK INTRA:                  -0.979
REMARK UNBOUND:                -1.730
REMARK SMILES CCN(C)c1ccc(C/N=N/Nc2ccc3ncnc(-c4ccccc4)c3c2)[nH]1
REMARK SMILES IDX 9 1 8 2 5 3 6 4 29 5 7 6 3 8 4 9 2 10 1 11 10 12 11 13 12 14
REMARK SMILES IDX 13 16 14 17 28 18 15 19 27 20 16 21 20 22 17 23 19 24 18 25
REMARK SMILES IDX 21 26 22 27 26 28 23 29 25 30 24 31
REMARK H PARENT 29 7 12 15
ROOT
ATOM      1  C   UNL     1      25.852   6.780  48.499  1.00  0.00    +0.222 C 
ENDROOT
BRANCH   1   2
ATOM      2  C   UNL     1      26.772   7.796  49.083  1.00  0.00    +0.040 A 
ATOM      3  C   UNL     1      28.757   8.638  49.765  1.00  0.00    +0.105 A 
ATOM      4  C   UNL     1      27.776   9.571  50.041  1.00  0.00    +0.047 A 
ATOM      5  N   UNL     1      28.121   7.555  49.206  1.00  0.00    -0.344 N 
ATOM      6  C   UNL     1      26.533   9.054  49.599  1.00  0.00    +0.027 A 
ATOM      7  H   UNL     1      28.574   6.688  48.960  1.00  0.00    +0.168 HD
BRANCH   3   8
ATOM      8  N   UNL     1      30.103   8.642  49.991  1.00  0.00    -0.362 N 
ATOM      9  C   UNL     1      30.592   8.524  51.363  1.00  0.00    +0.145 C 
BRANCH   8  10
ATOM     10  C   UNL     1      31.056   9.167  49.008  1.00  0.00    +0.114 C 
ATOM     11  C   UNL     1      31.876   8.031  48.412  1.00  0.00    +0.027 C 
ENDBRANCH   8  10
ENDBRANCH   3   8
ENDBRANCH   1   2
BRANCH   1  12
ATOM     12  N   UNL     1      26.217   5.454  49.017  1.00  0.00    -0.165 NA
ATOM     13  N   UNL     1      25.775   5.243  50.161  1.00  0.00    -0.074 NA
BRANCH  13  14
ATOM     14  N   UNL     1      26.158   3.987  50.458  1.00  0.00    -0.260 N 
ATOM     15  H   UNL     1      27.147   3.886  50.660  1.00  0.00    +0.192 HD
BRANCH  14  16
ATOM     16  C   UNL     1      25.291   3.155  51.185  1.00  0.00    +0.059 A 
ATOM     17  C   UNL     1      23.905   3.293  51.150  1.00  0.00    +0.030 A 
ATOM     18  C   UNL     1      25.816   2.063  51.887  1.00  0.00    +0.040 A 
ATOM     19  C   UNL     1      23.076   2.390  51.828  1.00  0.00    +0.031 A 
ATOM     20  C   UNL     1      24.979   1.153  52.587  1.00  0.00    +0.029 A 
ATOM     21  C   UNL     1      23.590   1.320  52.547  1.00  0.00    +0.074 A 
ATOM     22  C   UNL     1      25.420   0.048  53.337  1.00  0.00    +0.081 A 
ATOM     23  N   UNL     1      22.740   0.492  53.163  1.00  0.00    -0.236 NA
ATOM     24  N   UNL     1      24.578  -0.806  53.957  1.00  0.00    -0.236 NA
ATOM     25  C   UNL     1      23.275  -0.533  53.837  1.00  0.00    +0.223 A 
BRANCH  22  26
ATOM     26  C   UNL     1      26.843  -0.281  53.520  1.00  0.00    +0.001 A 
ATOM     27  C   UNL     1      27.428  -1.362  52.838  1.00  0.00    +0.010 A 
ATOM     28  C   UNL     1      27.649   0.484  54.381  1.00  0.00    +0.010 A 
ATOM     29  C   UNL     1      28.775  -1.680  53.027  1.00  0.00    +0.001 A 
ATOM     30  C   UNL     1      28.995   0.165  54.571  1.00  0.00    +0.001 A 
ATOM     31  C   UNL     1      29.556  -0.918  53.896  1.00  0.00    +0.000 A 
ENDBRANCH  22  26
ENDBRANCH  14  16
ENDBRANCH  13  14
ENDBRANCH   1  12
TORSDOF 7
ENDMDL
