REMARK SMILES Cc1[nH]c(N2CCN(C)CC2)c(C)c1Cc1cc(C(=O)O)cc(O)c1O
REMARK SMILES IDX 16 1 17 2 18 3 22 4 23 5 25 6 15 7 14 8 2 9 3 10 4 11 12 12
REMARK SMILES IDX 1 13 13 15 5 16 6 17 11 18 7 19 10 20 8 21 9 22 26 23 19 25
REMARK SMILES IDX 20 26 21 27 24 29
REMARK H PARENT 3 14 26 24 21 28 24 30
ROOT
ATOM      1  C   UNL     1       3.046   0.525   0.648  1.00  0.00    +0.003 A 
ATOM      2  C   UNL     1       3.482  -0.818   0.572  1.00  0.00    +0.023 A 
ATOM      3  C   UNL     1       4.318  -1.273  -0.463  1.00  0.00    +0.064 A 
ATOM      4  C   UNL     1       4.746  -0.383  -1.448  1.00  0.00    +0.065 A 
ATOM      5  C   UNL     1       4.336   0.939  -1.373  1.00  0.00    +0.158 A 
ATOM      6  C   UNL     1       3.502   1.399  -0.346  1.00  0.00    +0.161 A 
ENDROOT
BRANCH   1   7
ATOM      7  C   UNL     1       2.155   0.936   1.799  1.00  0.00    +0.077 C 
BRANCH   7   8
ATOM      8  C   UNL     1       0.829   0.256   1.606  1.00  0.00    -0.018 A 
ATOM      9  C   UNL     1       0.327  -0.781   2.382  1.00  0.00    +0.017 A 
ATOM     10  N   UNL     1      -0.903  -1.114   1.883  1.00  0.00    -0.345 N 
ATOM     11  C   UNL     1      -1.224  -0.325   0.813  1.00  0.00    +0.109 A 
ATOM     12  C   UNL     1      -0.184   0.569   0.623  1.00  0.00    -0.005 A 
ATOM     13  C   UNL     1       0.890  -1.498   3.556  1.00  0.00    +0.064 C 
ATOM     14  H   UNL     1      -1.490  -1.867   2.209  1.00  0.00    +0.168 HD
ATOM     15  C   UNL     1      -0.115   1.659  -0.387  1.00  0.00    +0.049 C 
BRANCH  11  16
ATOM     16  N   UNL     1      -2.405  -0.566   0.182  1.00  0.00    -0.355 N 
ATOM     17  C   UNL     1      -2.487  -0.520  -1.292  1.00  0.00    +0.133 C 
ATOM     18  C   UNL     1      -3.647  -0.192   0.891  1.00  0.00    +0.133 C 
ATOM     19  C   UNL     1      -3.568   0.474  -1.768  1.00  0.00    +0.105 C 
ATOM     20  C   UNL     1      -4.897  -0.502   0.036  1.00  0.00    +0.105 C 
ATOM     21  N   UNL     1      -4.933   0.149  -1.292  1.00  0.00    -0.303 NA
ATOM     22  C   UNL     1      -5.774   1.342  -1.292  1.00  0.00    +0.105 C 
ENDBRANCH  11  16
ENDBRANCH   7   8
ENDBRANCH   1   7
BRANCH   6  23
ATOM     23  O   UNL     1       3.199   2.735  -0.409  1.00  0.00    -0.504 OA
ATOM     24  H   UNL     1       2.609   2.973   0.321  1.00  0.00    +0.293 HD
ENDBRANCH   6  23
BRANCH   3  25
ATOM     25  C   UNL     1       4.725  -2.698  -0.461  1.00  0.00    +0.335 C 
ATOM     26  O   UNL     1       4.449  -3.517   0.396  1.00  0.00    -0.246 OA
BRANCH  25  27
ATOM     27  O   UNL     1       5.463  -3.033  -1.533  1.00  0.00    -0.478 OA
ATOM     28  H   UNL     1       5.653  -3.985  -1.401  1.00  0.00    +0.297 HD
ENDBRANCH  25  27
ENDBRANCH   3  25
BRANCH   5  29
ATOM     29  O   UNL     1       4.766   1.813  -2.334  1.00  0.00    -0.504 OA
ATOM     30  H   UNL     1       4.364   2.668  -2.080  1.00  0.00    +0.293 HD
ENDBRANCH   5  29
TORSDOF 7
