MODEL 1
REMARK VINA RESULT:    -7.093      0.000      0.000
REMARK INTER + INTRA:          -8.831
REMARK INTER:                  -8.752
REMARK INTRA:                  -0.080
REMARK UNBOUND:                -0.080
REMARK SMILES N#CC(=Cc1ccccn1)C(N)=C(C#N)C(N)=C(C#N)C#N
REMARK SMILES IDX 16 1 18 2 19 3 20 4 21 5 22 6 13 7 11 8 14 9 15 10 3 11 1 12
REMARK SMILES IDX 2 13 4 14 5 15 6 16 10 17 7 18 9 19 8 20 12 21 17 24
REMARK H PARENT 12 22 12 23 17 25 17 26
ROOT
ATOM      1  C   UNL     1      21.768   1.575  52.359  1.00  0.00    +0.081 C 
ATOM      2  C   UNL     1      21.638   2.061  51.095  1.00  0.00    +0.153 C 
ATOM      3  C   UNL     1      20.352   2.355  50.559  1.00  0.00    +0.113 C 
ATOM      4  N   UNL     1      19.290   2.593  50.160  1.00  0.00    -0.192 NA
ATOM      5  C   UNL     1      22.763   2.289  50.250  1.00  0.00    +0.113 C 
ATOM      6  N   UNL     1      23.693   2.473  49.580  1.00  0.00    -0.192 NA
ENDROOT
BRANCH   1   7
ATOM      7  C   UNL     1      23.104   1.239  52.893  1.00  0.00    +0.101 C 
ATOM      8  C   UNL     1      23.493  -0.050  53.088  1.00  0.00    +0.070 C 
ATOM      9  C   UNL     1      23.965   2.352  53.164  1.00  0.00    +0.104 C 
ATOM     10  N   UNL     1      24.628   3.276  53.393  1.00  0.00    -0.192 NA
BRANCH   8  11
ATOM     11  C   UNL     1      24.851  -0.375  53.547  1.00  0.00    +0.078 C 
ATOM     12  N   UNL     1      25.068  -1.169  56.003  1.00  0.00    -0.192 NA
ATOM     13  C   UNL     1      24.989  -0.795  54.906  1.00  0.00    +0.101 C 
ATOM     14  C   UNL     1      25.894  -0.255  52.703  1.00  0.00    +0.050 C 
BRANCH  14  15
ATOM     15  C   UNL     1      27.308  -0.506  52.993  1.00  0.00    +0.064 A 
ATOM     16  C   UNL     1      28.205   0.494  53.354  1.00  0.00    +0.028 A 
ATOM     17  N   UNL     1      27.652  -1.811  52.946  1.00  0.00    -0.257 NA
ATOM     18  C   UNL     1      29.522   0.140  53.639  1.00  0.00    +0.004 A 
ATOM     19  C   UNL     1      28.937  -2.126  53.225  1.00  0.00    +0.111 A 
ATOM     20  C   UNL     1      29.899  -1.195  53.571  1.00  0.00    +0.020 A 
ENDBRANCH  14  15
ENDBRANCH   8  11
BRANCH   8  21
ATOM     21  N   UNL     1      22.666  -1.145  52.835  1.00  0.00    -0.397 N 
ATOM     22  H   UNL     1      23.127  -2.048  52.951  1.00  0.00    +0.156 HD
ATOM     23  H   UNL     1      21.788  -1.118  53.356  1.00  0.00    +0.156 HD
ENDBRANCH   8  21
ENDBRANCH   1   7
BRANCH   1  24
ATOM     24  N   UNL     1      20.705   1.299  53.221  1.00  0.00    -0.396 N 
ATOM     25  H   UNL     1      20.971   0.867  54.107  1.00  0.00    +0.156 HD
ATOM     26  H   UNL     1      20.036   2.057  53.367  1.00  0.00    +0.156 HD
ENDBRANCH   1  24
TORSDOF 5
ENDMDL
MODEL 2
REMARK VINA RESULT:    -6.809      1.865      7.002
REMARK INTER + INTRA:          -8.481
REMARK INTER:                  -8.663
REMARK INTRA:                   0.182
REMARK UNBOUND:                -0.080
REMARK SMILES N#CC(=Cc1ccccn1)C(N)=C(C#N)C(N)=C(C#N)C#N
REMARK SMILES IDX 16 1 18 2 19 3 20 4 21 5 22 6 13 7 11 8 14 9 15 10 3 11 1 12
REMARK SMILES IDX 2 13 4 14 5 15 6 16 10 17 7 18 9 19 8 20 12 21 17 24
REMARK H PARENT 12 22 12 23 17 25 17 26
ROOT
ATOM      1  C   UNL     1      27.538   0.030  54.218  1.00  0.00    +0.081 C 
ATOM      2  C   UNL     1      28.173  -0.980  53.566  1.00  0.00    +0.153 C 
ATOM      3  C   UNL     1      29.578  -1.165  53.707  1.00  0.00    +0.113 C 
ATOM      4  N   UNL     1      30.721  -1.292  53.854  1.00  0.00    -0.192 NA
ATOM      5  C   UNL     1      27.480  -1.889  52.713  1.00  0.00    +0.113 C 
ATOM      6  N   UNL     1      26.896  -2.622  52.028  1.00  0.00    -0.192 NA
ENDROOT
BRANCH   1   7
ATOM      7  C   UNL     1      26.085   0.234  54.037  1.00  0.00    +0.101 C 
ATOM      8  C   UNL     1      25.596   1.102  53.110  1.00  0.00    +0.070 C 
ATOM      9  C   UNL     1      25.235  -0.555  54.876  1.00  0.00    +0.104 C 
ATOM     10  N   UNL     1      24.575  -1.194  55.586  1.00  0.00    -0.192 NA
BRANCH   8  11
ATOM     11  C   UNL     1      24.150   1.241  52.885  1.00  0.00    +0.078 C 
ATOM     12  N   UNL     1      23.246   3.663  52.719  1.00  0.00    -0.192 NA
ATOM     13  C   UNL     1      23.634   2.572  52.812  1.00  0.00    +0.101 C 
ATOM     14  C   UNL     1      23.376   0.144  52.775  1.00  0.00    +0.050 C 
BRANCH  14  15
ATOM     15  C   UNL     1      21.926   0.091  52.580  1.00  0.00    +0.064 A 
ATOM     16  C   UNL     1      21.304   0.394  51.373  1.00  0.00    +0.028 A 
ATOM     17  N   UNL     1      21.244  -0.346  53.661  1.00  0.00    -0.257 NA
ATOM     18  C   UNL     1      19.917   0.280  51.288  1.00  0.00    +0.004 A 
ATOM     19  C   UNL     1      19.900  -0.444  53.552  1.00  0.00    +0.111 A 
ATOM     20  C   UNL     1      19.199  -0.143  52.399  1.00  0.00    +0.020 A 
ENDBRANCH  14  15
ENDBRANCH   8  11
BRANCH   8  21
ATOM     21  N   UNL     1      26.409   1.883  52.289  1.00  0.00    -0.397 N 
ATOM     22  H   UNL     1      26.433   2.870  52.546  1.00  0.00    +0.156 HD
ATOM     23  H   UNL     1      27.356   1.514  52.187  1.00  0.00    +0.156 HD
ENDBRANCH   8  21
ENDBRANCH   1   7
BRANCH   1  24
ATOM     24  N   UNL     1      28.164   0.970  55.038  1.00  0.00    -0.396 N 
ATOM     25  H   UNL     1      28.135   1.930  54.692  1.00  0.00    +0.156 HD
ATOM     26  H   UNL     1      27.928   0.928  56.031  1.00  0.00    +0.156 HD
ENDBRANCH   1  24
TORSDOF 5
ENDMDL
MODEL 3
REMARK VINA RESULT:    -6.711      1.730      7.107
REMARK INTER + INTRA:          -8.360
REMARK INTER:                  -8.270
REMARK INTRA:                  -0.090
REMARK UNBOUND:                -0.080
REMARK SMILES N#CC(=Cc1ccccn1)C(N)=C(C#N)C(N)=C(C#N)C#N
REMARK SMILES IDX 16 1 18 2 19 3 20 4 21 5 22 6 13 7 11 8 14 9 15 10 3 11 1 12
REMARK SMILES IDX 2 13 4 14 5 15 6 16 10 17 7 18 9 19 8 20 12 21 17 24
REMARK H PARENT 12 22 12 23 17 25 17 26
ROOT
ATOM      1  C   UNL     1      27.204  -0.266  52.595  1.00  0.00    +0.081 C 
ATOM      2  C   UNL     1      28.253   0.172  53.342  1.00  0.00    +0.153 C 
ATOM      3  C   UNL     1      29.298  -0.718  53.717  1.00  0.00    +0.113 C 
ATOM      4  N   UNL     1      30.138  -1.469  53.994  1.00  0.00    -0.192 NA
ATOM      5  C   UNL     1      28.355   1.522  53.790  1.00  0.00    +0.113 C 
ATOM      6  N   UNL     1      28.422   2.627  54.141  1.00  0.00    -0.192 NA
ENDROOT
BRANCH   1   7
ATOM      7  C   UNL     1      26.106   0.658  52.241  1.00  0.00    +0.101 C 
ATOM      8  C   UNL     1      24.880   0.568  52.825  1.00  0.00    +0.070 C 
ATOM      9  C   UNL     1      26.424   1.662  51.271  1.00  0.00    +0.104 C 
ATOM     10  N   UNL     1      26.708   2.449  50.467  1.00  0.00    -0.192 NA
BRANCH   8  11
ATOM     11  C   UNL     1      23.819   1.539  52.523  1.00  0.00    +0.078 C 
ATOM     12  N   UNL     1      24.200   3.953  53.382  1.00  0.00    -0.192 NA
ATOM     13  C   UNL     1      24.007   2.871  53.009  1.00  0.00    +0.101 C 
ATOM     14  C   UNL     1      22.729   1.154  51.833  1.00  0.00    +0.050 C 
BRANCH  14  15
ATOM     15  C   UNL     1      21.569   1.971  51.468  1.00  0.00    +0.064 A 
ATOM     16  C   UNL     1      20.467   2.150  52.297  1.00  0.00    +0.028 A 
ATOM     17  N   UNL     1      21.694   2.596  50.277  1.00  0.00    -0.257 NA
ATOM     18  C   UNL     1      19.431   2.976  51.865  1.00  0.00    +0.004 A 
ATOM     19  C   UNL     1      20.673   3.389  49.881  1.00  0.00    +0.111 A 
ATOM     20  C   UNL     1      19.532   3.605  50.631  1.00  0.00    +0.020 A 
ENDBRANCH  14  15
ENDBRANCH   8  11
BRANCH   8  21
ATOM     21  N   UNL     1      24.552  -0.406  53.768  1.00  0.00    -0.397 N 
ATOM     22  H   UNL     1      23.969  -1.159  53.400  1.00  0.00    +0.156 HD
ATOM     23  H   UNL     1      25.363  -0.786  54.259  1.00  0.00    +0.156 HD
ENDBRANCH   8  21
ENDBRANCH   1   7
BRANCH   1  24
ATOM     24  N   UNL     1      27.030  -1.579  52.156  1.00  0.00    -0.396 N 
ATOM     25  H   UNL     1      26.202  -2.050  52.523  1.00  0.00    +0.156 HD
ATOM     26  H   UNL     1      27.125  -1.732  51.150  1.00  0.00    +0.156 HD
ENDBRANCH   1  24
TORSDOF 5
ENDMDL
MODEL 4
REMARK VINA RESULT:    -6.635      3.534      6.114
REMARK INTER + INTRA:          -8.267
REMARK INTER:                  -8.207
REMARK INTRA:                  -0.060
REMARK UNBOUND:                -0.080
REMARK SMILES N#CC(=Cc1ccccn1)C(N)=C(C#N)C(N)=C(C#N)C#N
REMARK SMILES IDX 16 1 18 2 19 3 20 4 21 5 22 6 13 7 11 8 14 9 15 10 3 11 1 12
REMARK SMILES IDX 2 13 4 14 5 15 6 16 10 17 7 18 9 19 8 20 12 21 17 24
REMARK H PARENT 12 22 12 23 17 25 17 26
ROOT
ATOM      1  C   UNL     1      24.388   4.855  49.466  1.00  0.00    +0.081 C 
ATOM      2  C   UNL     1      25.742   4.733  49.437  1.00  0.00    +0.153 C 
ATOM      3  C   UNL     1      26.544   5.710  48.782  1.00  0.00    +0.113 C 
ATOM      4  N   UNL     1      27.166   6.532  48.249  1.00  0.00    -0.192 NA
ATOM      5  C   UNL     1      26.420   3.635  50.043  1.00  0.00    +0.113 C 
ATOM      6  N   UNL     1      26.953   2.735  50.547  1.00  0.00    -0.192 NA
ENDROOT
BRANCH   1   7
ATOM      7  C   UNL     1      23.562   3.816  50.118  1.00  0.00    +0.101 C 
ATOM      8  C   UNL     1      23.353   3.809  51.462  1.00  0.00    +0.070 C 
ATOM      9  C   UNL     1      22.981   2.842  49.243  1.00  0.00    +0.104 C 
ATOM     10  N   UNL     1      22.543   2.057  48.510  1.00  0.00    -0.192 NA
BRANCH   8  11
ATOM     11  C   UNL     1      22.468   2.817  52.090  1.00  0.00    +0.078 C 
ATOM     12  N   UNL     1      19.994   3.522  52.392  1.00  0.00    -0.192 NA
ATOM     13  C   UNL     1      21.104   3.200  52.282  1.00  0.00    +0.101 C 
ATOM     14  C   UNL     1      22.957   1.620  52.468  1.00  0.00    +0.050 C 
BRANCH  14  15
ATOM     15  C   UNL     1      22.235   0.530  53.128  1.00  0.00    +0.064 A 
ATOM     16  C   UNL     1      20.955   0.127  52.763  1.00  0.00    +0.028 A 
ATOM     17  N   UNL     1      22.953  -0.100  54.084  1.00  0.00    -0.257 NA
ATOM     18  C   UNL     1      20.373  -0.944  53.437  1.00  0.00    +0.004 A 
ATOM     19  C   UNL     1      22.363  -1.134  54.724  1.00  0.00    +0.111 A 
ATOM     20  C   UNL     1      21.087  -1.587  54.440  1.00  0.00    +0.020 A 
ENDBRANCH  14  15
ENDBRANCH   8  11
BRANCH   8  21
ATOM     21  N   UNL     1      23.916   4.745  52.329  1.00  0.00    -0.397 N 
ATOM     22  H   UNL     1      24.038   4.407  53.284  1.00  0.00    +0.156 HD
ATOM     23  H   UNL     1      24.784   5.153  51.978  1.00  0.00    +0.156 HD
ENDBRANCH   8  21
ENDBRANCH   1   7
BRANCH   1  24
ATOM     24  N   UNL     1      23.666   5.886  48.864  1.00  0.00    -0.396 N 
ATOM     25  H   UNL     1      22.805   5.594  48.398  1.00  0.00    +0.156 HD
ATOM     26  H   UNL     1      23.510   6.718  49.436  1.00  0.00    +0.156 HD
ENDBRANCH   1  24
TORSDOF 5
ENDMDL
MODEL 5
REMARK VINA RESULT:    -6.631      3.110      4.748
REMARK INTER + INTRA:          -8.261
REMARK INTER:                  -8.296
REMARK INTRA:                   0.034
REMARK UNBOUND:                -0.080
REMARK SMILES N#CC(=Cc1ccccn1)C(N)=C(C#N)C(N)=C(C#N)C#N
REMARK SMILES IDX 16 1 18 2 19 3 20 4 21 5 22 6 13 7 11 8 14 9 15 10 3 11 1 12
REMARK SMILES IDX 2 13 4 14 5 15 6 16 10 17 7 18 9 19 8 20 12 21 17 24
REMARK H PARENT 12 22 12 23 17 25 17 26
ROOT
ATOM      1  C   UNL     1      20.421   0.440  53.327  1.00  0.00    +0.081 C 
ATOM      2  C   UNL     1      19.477   0.026  52.440  1.00  0.00    +0.153 C 
ATOM      3  C   UNL     1      18.458  -0.885  52.838  1.00  0.00    +0.113 C 
ATOM      4  N   UNL     1      17.636  -1.619  53.200  1.00  0.00    -0.192 NA
ATOM      5  C   UNL     1      19.461   0.468  51.084  1.00  0.00    +0.113 C 
ATOM      6  N   UNL     1      19.464   0.844  49.986  1.00  0.00    -0.192 NA
ENDROOT
BRANCH   1   7
ATOM      7  C   UNL     1      21.496   1.358  52.894  1.00  0.00    +0.101 C 
ATOM      8  C   UNL     1      22.774   0.928  52.715  1.00  0.00    +0.070 C 
ATOM      9  C   UNL     1      21.099   2.713  52.653  1.00  0.00    +0.104 C 
ATOM     10  N   UNL     1      20.748   3.806  52.487  1.00  0.00    -0.192 NA
BRANCH   8  11
ATOM     11  C   UNL     1      23.818   1.832  52.211  1.00  0.00    +0.078 C 
ATOM     12  N   UNL     1      25.730   2.403  53.862  1.00  0.00    -0.192 NA
ATOM     13  C   UNL     1      24.869   2.172  53.118  1.00  0.00    +0.101 C 
ATOM     14  C   UNL     1      23.746   2.310  50.953  1.00  0.00    +0.050 C 
BRANCH  14  15
ATOM     15  C   UNL     1      24.673   3.235  50.297  1.00  0.00    +0.064 A 
ATOM     16  C   UNL     1      25.989   2.910  49.987  1.00  0.00    +0.028 A 
ATOM     17  N   UNL     1      24.114   4.416  49.954  1.00  0.00    -0.257 NA
ATOM     18  C   UNL     1      26.776   3.855  49.332  1.00  0.00    +0.004 A 
ATOM     19  C   UNL     1      24.900   5.316  49.322  1.00  0.00    +0.111 A 
ATOM     20  C   UNL     1      26.224   5.085  48.996  1.00  0.00    +0.020 A 
ENDBRANCH  14  15
ENDBRANCH   8  11
BRANCH   8  21
ATOM     21  N   UNL     1      23.180  -0.386  52.951  1.00  0.00    -0.397 N 
ATOM     22  H   UNL     1      22.497  -1.088  52.665  1.00  0.00    +0.156 HD
ATOM     23  H   UNL     1      24.101  -0.601  52.566  1.00  0.00    +0.156 HD
ENDBRANCH   8  21
ENDBRANCH   1   7
BRANCH   1  24
ATOM     24  N   UNL     1      20.509   0.018  54.654  1.00  0.00    -0.396 N 
ATOM     25  H   UNL     1      20.720  -0.973  54.778  1.00  0.00    +0.156 HD
ATOM     26  H   UNL     1      21.082   0.596  55.272  1.00  0.00    +0.156 HD
ENDBRANCH   1  24
TORSDOF 5
ENDMDL
MODEL 6
REMARK VINA RESULT:    -6.571      3.646      6.079
REMARK INTER + INTRA:          -8.187
REMARK INTER:                  -7.798
REMARK INTRA:                  -0.389
REMARK UNBOUND:                -0.080
REMARK SMILES N#CC(=Cc1ccccn1)C(N)=C(C#N)C(N)=C(C#N)C#N
REMARK SMILES IDX 16 1 18 2 19 3 20 4 21 5 22 6 13 7 11 8 14 9 15 10 3 11 1 12
REMARK SMILES IDX 2 13 4 14 5 15 6 16 10 17 7 18 9 19 8 20 12 21 17 24
REMARK H PARENT 12 22 12 23 17 25 17 26
ROOT
ATOM      1  C   UNL     1      23.902   6.246  50.872  1.00  0.00    +0.081 C 
ATOM      2  C   UNL     1      24.004   6.799  49.634  1.00  0.00    +0.153 C 
ATOM      3  C   UNL     1      24.648   8.056  49.451  1.00  0.00    +0.113 C 
ATOM      4  N   UNL     1      25.189   9.075  49.339  1.00  0.00    -0.192 NA
ATOM      5  C   UNL     1      23.474   6.165  48.472  1.00  0.00    +0.113 C 
ATOM      6  N   UNL     1      23.040   5.629  47.538  1.00  0.00    -0.192 NA
ENDROOT
BRANCH   1   7
ATOM      7  C   UNL     1      23.200   4.958  51.056  1.00  0.00    +0.101 C 
ATOM      8  C   UNL     1      23.879   3.788  51.192  1.00  0.00    +0.070 C 
ATOM      9  C   UNL     1      21.770   5.029  51.107  1.00  0.00    +0.104 C 
ATOM     10  N   UNL     1      20.613   5.119  51.123  1.00  0.00    -0.192 NA
BRANCH   8  11
ATOM     11  C   UNL     1      23.174   2.524  51.451  1.00  0.00    +0.078 C 
ATOM     12  N   UNL     1      22.134   1.352  49.388  1.00  0.00    -0.192 NA
ATOM     13  C   UNL     1      22.577   1.876  50.325  1.00  0.00    +0.101 C 
ATOM     14  C   UNL     1      23.101   2.038  52.705  1.00  0.00    +0.050 C 
BRANCH  14  15
ATOM     15  C   UNL     1      22.421   0.819  53.150  1.00  0.00    +0.064 A 
ATOM     16  C   UNL     1      23.080  -0.383  53.387  1.00  0.00    +0.028 A 
ATOM     17  N   UNL     1      21.100   0.983  53.379  1.00  0.00    -0.257 NA
ATOM     18  C   UNL     1      22.341  -1.473  53.840  1.00  0.00    +0.004 A 
ATOM     19  C   UNL     1      20.406  -0.092  53.815  1.00  0.00    +0.111 A 
ATOM     20  C   UNL     1      20.976  -1.329  54.056  1.00  0.00    +0.020 A 
ENDBRANCH  14  15
ENDBRANCH   8  11
BRANCH   8  21
ATOM     21  N   UNL     1      25.270   3.699  51.138  1.00  0.00    -0.397 N 
ATOM     22  H   UNL     1      25.660   3.847  50.207  1.00  0.00    +0.156 HD
ATOM     23  H   UNL     1      25.741   4.293  51.824  1.00  0.00    +0.156 HD
ENDBRANCH   8  21
ENDBRANCH   1   7
BRANCH   1  24
ATOM     24  N   UNL     1      24.369   6.832  52.050  1.00  0.00    -0.396 N 
ATOM     25  H   UNL     1      23.886   7.689  52.326  1.00  0.00    +0.156 HD
ATOM     26  H   UNL     1      24.490   6.205  52.846  1.00  0.00    +0.156 HD
ENDBRANCH   1  24
TORSDOF 5
ENDMDL
MODEL 7
REMARK VINA RESULT:    -6.546      2.847      7.570
REMARK INTER + INTRA:          -8.157
REMARK INTER:                  -7.888
REMARK INTRA:                  -0.268
REMARK UNBOUND:                -0.080
REMARK SMILES N#CC(=Cc1ccccn1)C(N)=C(C#N)C(N)=C(C#N)C#N
REMARK SMILES IDX 16 1 18 2 19 3 20 4 21 5 22 6 13 7 11 8 14 9 15 10 3 11 1 12
REMARK SMILES IDX 2 13 4 14 5 15 6 16 10 17 7 18 9 19 8 20 12 21 17 24
REMARK H PARENT 12 22 12 23 17 25 17 26
ROOT
ATOM      1  C   UNL     1      24.159   0.997  52.716  1.00  0.00    +0.081 C 
ATOM      2  C   UNL     1      24.777   2.144  53.103  1.00  0.00    +0.153 C 
ATOM      3  C   UNL     1      26.103   2.114  53.623  1.00  0.00    +0.113 C 
ATOM      4  N   UNL     1      27.186   2.053  54.031  1.00  0.00    -0.192 NA
ATOM      5  C   UNL     1      24.140   3.417  53.019  1.00  0.00    +0.113 C 
ATOM      6  N   UNL     1      23.605   4.444  52.938  1.00  0.00    -0.192 NA
ENDROOT
BRANCH   1   7
ATOM      7  C   UNL     1      22.770   1.034  52.211  1.00  0.00    +0.101 C 
ATOM      8  C   UNL     1      21.712   0.718  53.005  1.00  0.00    +0.070 C 
ATOM      9  C   UNL     1      22.613   1.449  50.848  1.00  0.00    +0.104 C 
ATOM     10  N   UNL     1      22.523   1.767  49.737  1.00  0.00    -0.192 NA
BRANCH   8  11
ATOM     11  C   UNL     1      20.331   0.833  52.516  1.00  0.00    +0.078 C 
ATOM     12  N   UNL     1      19.421   3.240  52.218  1.00  0.00    -0.192 NA
ATOM     13  C   UNL     1      19.808   2.155  52.366  1.00  0.00    +0.101 C 
ATOM     14  C   UNL     1      19.616  -0.277  52.247  1.00  0.00    +0.050 C 
BRANCH  14  15
ATOM     15  C   UNL     1      18.229  -0.353  51.783  1.00  0.00    +0.064 A 
ATOM     16  C   UNL     1      17.842  -0.075  50.476  1.00  0.00    +0.028 A 
ATOM     17  N   UNL     1      17.361  -0.787  52.723  1.00  0.00    -0.257 NA
ATOM     18  C   UNL     1      16.498  -0.211  50.133  1.00  0.00    +0.004 A 
ATOM     19  C   UNL     1      16.064  -0.907  52.364  1.00  0.00    +0.111 A 
ATOM     20  C   UNL     1      15.588  -0.631  51.095  1.00  0.00    +0.020 A 
ENDBRANCH  14  15
ENDBRANCH   8  11
BRANCH   8  21
ATOM     21  N   UNL     1      21.847   0.307  54.331  1.00  0.00    -0.397 N 
ATOM     22  H   UNL     1      22.746  -0.129  54.541  1.00  0.00    +0.156 HD
ATOM     23  H   UNL     1      21.636   1.043  55.007  1.00  0.00    +0.156 HD
ENDBRANCH   8  21
ENDBRANCH   1   7
BRANCH   1  24
ATOM     24  N   UNL     1      24.716  -0.280  52.804  1.00  0.00    -0.396 N 
ATOM     25  H   UNL     1      24.378  -0.947  52.108  1.00  0.00    +0.156 HD
ATOM     26  H   UNL     1      25.733  -0.322  52.890  1.00  0.00    +0.156 HD
ENDBRANCH   1  24
TORSDOF 5
ENDMDL
MODEL 8
REMARK VINA RESULT:    -6.454      3.018      4.253
REMARK INTER + INTRA:          -8.043
REMARK INTER:                  -7.558
REMARK INTRA:                  -0.485
REMARK UNBOUND:                -0.080
REMARK SMILES N#CC(=Cc1ccccn1)C(N)=C(C#N)C(N)=C(C#N)C#N
REMARK SMILES IDX 16 1 18 2 19 3 20 4 21 5 22 6 13 7 11 8 14 9 15 10 3 11 1 12
REMARK SMILES IDX 2 13 4 14 5 15 6 16 10 17 7 18 9 19 8 20 12 21 17 24
REMARK H PARENT 12 22 12 23 17 25 17 26
ROOT
ATOM      1  C   UNL     1      22.615   5.661  50.667  1.00  0.00    +0.081 C 
ATOM      2  C   UNL     1      23.369   6.640  50.101  1.00  0.00    +0.153 C 
ATOM      3  C   UNL     1      22.784   7.884  49.732  1.00  0.00    +0.113 C 
ATOM      4  N   UNL     1      22.276   8.889  49.454  1.00  0.00    -0.192 NA
ATOM      5  C   UNL     1      24.761   6.473  49.842  1.00  0.00    +0.113 C 
ATOM      6  N   UNL     1      25.895   6.319  49.644  1.00  0.00    -0.192 NA
ENDROOT
BRANCH   1   7
ATOM      7  C   UNL     1      23.224   4.359  51.014  1.00  0.00    +0.101 C 
ATOM      8  C   UNL     1      23.750   4.122  52.246  1.00  0.00    +0.070 C 
ATOM      9  C   UNL     1      23.200   3.365  49.983  1.00  0.00    +0.104 C 
ATOM     10  N   UNL     1      23.184   2.591  49.119  1.00  0.00    -0.192 NA
BRANCH   8  11
ATOM     11  C   UNL     1      24.283   2.800  52.605  1.00  0.00    +0.078 C 
ATOM     12  N   UNL     1      22.533   0.968  53.142  1.00  0.00    -0.192 NA
ATOM     13  C   UNL     1      23.329   1.784  52.924  1.00  0.00    +0.101 C 
ATOM     14  C   UNL     1      25.615   2.596  52.636  1.00  0.00    +0.050 C 
BRANCH  14  15
ATOM     15  C   UNL     1      26.320   1.364  52.996  1.00  0.00    +0.064 A 
ATOM     16  C   UNL     1      26.506   0.303  52.116  1.00  0.00    +0.028 A 
ATOM     17  N   UNL     1      26.837   1.374  54.244  1.00  0.00    -0.257 NA
ATOM     18  C   UNL     1      27.221  -0.811  52.552  1.00  0.00    +0.004 A 
ATOM     19  C   UNL     1      27.524   0.280  54.642  1.00  0.00    +0.111 A 
ATOM     20  C   UNL     1      27.738  -0.827  53.841  1.00  0.00    +0.020 A 
ENDBRANCH  14  15
ENDBRANCH   8  11
BRANCH   8  21
ATOM     21  N   UNL     1      23.786   5.079  53.260  1.00  0.00    -0.397 N 
ATOM     22  H   UNL     1      24.384   5.880  53.053  1.00  0.00    +0.156 HD
ATOM     23  H   UNL     1      22.860   5.388  53.559  1.00  0.00    +0.156 HD
ENDBRANCH   8  21
ENDBRANCH   1   7
BRANCH   1  24
ATOM     24  N   UNL     1      21.244   5.750  50.915  1.00  0.00    -0.396 N 
ATOM     25  H   UNL     1      20.658   5.174  50.309  1.00  0.00    +0.156 HD
ATOM     26  H   UNL     1      20.957   5.667  51.892  1.00  0.00    +0.156 HD
ENDBRANCH   1  24
TORSDOF 5
ENDMDL
MODEL 9
REMARK VINA RESULT:    -6.428      3.262      6.636
REMARK INTER + INTRA:          -8.010
REMARK INTER:                  -7.754
REMARK INTRA:                  -0.257
REMARK UNBOUND:                -0.080
REMARK SMILES N#CC(=Cc1ccccn1)C(N)=C(C#N)C(N)=C(C#N)C#N
REMARK SMILES IDX 16 1 18 2 19 3 20 4 21 5 22 6 13 7 11 8 14 9 15 10 3 11 1 12
REMARK SMILES IDX 2 13 4 14 5 15 6 16 10 17 7 18 9 19 8 20 12 21 17 24
REMARK H PARENT 12 22 12 23 17 25 17 26
ROOT
ATOM      1  C   UNL     1      23.287   0.615  52.891  1.00  0.00    +0.081 C 
ATOM      2  C   UNL     1      22.060   0.487  53.462  1.00  0.00    +0.153 C 
ATOM      3  C   UNL     1      21.782  -0.591  54.350  1.00  0.00    +0.113 C 
ATOM      4  N   UNL     1      21.595  -1.475  55.077  1.00  0.00    -0.192 NA
ATOM      5  C   UNL     1      21.000   1.405  53.201  1.00  0.00    +0.113 C 
ATOM      6  N   UNL     1      20.152   2.166  52.979  1.00  0.00    -0.192 NA
ENDROOT
BRANCH   1   7
ATOM      7  C   UNL     1      23.554   1.717  51.942  1.00  0.00    +0.101 C 
ATOM      8  C   UNL     1      24.376   2.753  52.264  1.00  0.00    +0.070 C 
ATOM      9  C   UNL     1      22.916   1.609  50.664  1.00  0.00    +0.104 C 
ATOM     10  N   UNL     1      22.367   1.501  49.648  1.00  0.00    -0.192 NA
BRANCH   8  11
ATOM     11  C   UNL     1      24.695   3.803  51.286  1.00  0.00    +0.078 C 
ATOM     12  N   UNL     1      26.835   3.437  49.873  1.00  0.00    -0.192 NA
ATOM     13  C   UNL     1      25.885   3.624  50.513  1.00  0.00    +0.101 C 
ATOM     14  C   UNL     1      23.891   4.877  51.163  1.00  0.00    +0.050 C 
BRANCH  14  15
ATOM     15  C   UNL     1      24.067   6.025  50.270  1.00  0.00    +0.064 A 
ATOM     16  C   UNL     1      23.685   6.020  48.932  1.00  0.00    +0.028 A 
ATOM     17  N   UNL     1      24.571   7.119  50.880  1.00  0.00    -0.257 NA
ATOM     18  C   UNL     1      23.869   7.179  48.180  1.00  0.00    +0.004 A 
ATOM     19  C   UNL     1      24.741   8.229  50.127  1.00  0.00    +0.111 A 
ATOM     20  C   UNL     1      24.410   8.305  48.786  1.00  0.00    +0.020 A 
ENDBRANCH  14  15
ENDBRANCH   8  11
BRANCH   8  21
ATOM     21  N   UNL     1      25.000   2.878  53.504  1.00  0.00    -0.397 N 
ATOM     22  H   UNL     1      24.456   3.399  54.192  1.00  0.00    +0.156 HD
ATOM     23  H   UNL     1      25.312   1.986  53.893  1.00  0.00    +0.156 HD
ENDBRANCH   8  21
ENDBRANCH   1   7
BRANCH   1  24
ATOM     24  N   UNL     1      24.352  -0.267  53.080  1.00  0.00    -0.396 N 
ATOM     25  H   UNL     1      24.091  -1.188  53.433  1.00  0.00    +0.156 HD
ATOM     26  H   UNL     1      25.014  -0.343  52.306  1.00  0.00    +0.156 HD
ENDBRANCH   1  24
TORSDOF 5
ENDMDL
