REMARK SMILES Cc1cc(-c2ccccc2)[nH]c1-c1ccccc1
REMARK SMILES IDX 1 1 2 2 3 3 4 4 11 5 12 6 13 8 14 9 18 10 15 11 17 12 16 13
REMARK SMILES IDX 5 14 6 15 10 16 7 17 9 18 8 19
REMARK H PARENT 11 7
ROOT
ATOM      1  C   UNL     1       1.664  -1.729   2.229  1.00  0.00    +0.047 C 
ATOM      2  C   UNL     1       0.709  -1.027   1.331  1.00  0.00    -0.025 A 
ATOM      3  C   UNL     1      -0.711  -1.063   1.437  1.00  0.00    +0.032 A 
ATOM      4  C   UNL     1      -1.254  -0.308   0.413  1.00  0.00    +0.046 A 
ATOM      5  N   UNL     1      -0.187   0.194  -0.296  1.00  0.00    -0.354 N 
ATOM      6  C   UNL     1       1.011  -0.228   0.237  1.00  0.00    +0.049 A 
ATOM      7  H   UNL     1      -0.266   0.826  -1.080  1.00  0.00    +0.167 HD
ENDROOT
BRANCH   6   8
ATOM      8  C   UNL     1       2.291   0.183  -0.334  1.00  0.00    -0.002 A 
ATOM      9  C   UNL     1       3.266   0.787   0.469  1.00  0.00    +0.010 A 
ATOM     10  C   UNL     1       2.560  -0.014  -1.695  1.00  0.00    +0.010 A 
ATOM     11  C   UNL     1       4.487   1.188  -0.077  1.00  0.00    +0.001 A 
ATOM     12  C   UNL     1       3.781   0.386  -2.241  1.00  0.00    +0.001 A 
ATOM     13  C   UNL     1       4.744   0.988  -1.432  1.00  0.00    +0.000 A 
ENDBRANCH   6   8
BRANCH   4  14
ATOM     14  C   UNL     1      -2.648  -0.011   0.079  1.00  0.00    -0.002 A 
ATOM     15  C   UNL     1      -3.604   0.127   1.093  1.00  0.00    +0.010 A 
ATOM     16  C   UNL     1      -3.058   0.137  -1.254  1.00  0.00    +0.010 A 
ATOM     17  C   UNL     1      -4.937   0.414   0.786  1.00  0.00    +0.001 A 
ATOM     18  C   UNL     1      -4.392   0.423  -1.562  1.00  0.00    +0.001 A 
ATOM     19  C   UNL     1      -5.330   0.563  -0.542  1.00  0.00    +0.000 A 
ENDBRANCH   4  14
TORSDOF 2
