MODEL 1
REMARK VINA RESULT:    -8.655      0.000      0.000
REMARK INTER + INTRA:         -11.141
REMARK INTER:                 -10.172
REMARK INTRA:                  -0.969
REMARK UNBOUND:                -0.969
REMARK SMILES Cc1cccc(C=C2C(=O)N(C)c3ncnc(C=C(C#N)C(N)=O)c32)c1
REMARK SMILES IDX 7 1 8 2 9 3 10 4 11 5 12 6 13 7 14 8 15 9 16 10 17 11 25 12
REMARK SMILES IDX 6 13 2 14 3 15 26 16 4 17 5 18 1 19 18 20 19 21 20 22 21 23
REMARK SMILES IDX 22 24 23 25 24 26
REMARK H PARENT 23 27 23 28
ROOT
ATOM      1  C   UNL     1      25.600   2.519  51.790  1.00  0.00    +0.022 C 
ATOM      2  C   UNL     1      25.901   1.588  52.711  1.00  0.00    +0.054 C 
ATOM      3  C   UNL     1      27.335   1.528  53.183  1.00  0.00    +0.260 C 
ATOM      4  O   UNL     1      28.275   2.156  52.731  1.00  0.00    -0.269 OA
ATOM      5  N   UNL     1      27.319   0.645  54.242  1.00  0.00    -0.295 N 
ATOM      6  C   UNL     1      28.458   0.249  55.022  1.00  0.00    +0.155 C 
ATOM      7  C   UNL     1      26.045   0.096  54.432  1.00  0.00    +0.147 A 
ATOM      8  N   UNL     1      25.771  -0.809  55.379  1.00  0.00    -0.218 NA
ATOM      9  C   UNL     1      24.508  -1.243  55.357  1.00  0.00    +0.224 A 
ATOM     10  N   UNL     1      23.556  -0.864  54.486  1.00  0.00    -0.236 NA
ATOM     11  C   UNL     1      23.905   0.034  53.532  1.00  0.00    +0.078 A 
ATOM     12  C   UNL     1      25.152   0.607  53.498  1.00  0.00    +0.056 A 
ENDROOT
BRANCH   1  13
ATOM     13  C   UNL     1      24.287   2.900  51.279  1.00  0.00    -0.025 A 
ATOM     14  C   UNL     1      22.563   2.785  49.564  1.00  0.00    -0.051 A 
ATOM     15  C   UNL     1      21.723   3.556  50.377  1.00  0.00    +0.003 A 
ATOM     16  C   UNL     1      23.839   2.441  50.034  1.00  0.00    +0.011 A 
ATOM     17  C   UNL     1      22.156   3.993  51.629  1.00  0.00    +0.001 A 
ATOM     18  C   UNL     1      23.434   3.664  52.080  1.00  0.00    +0.008 A 
ATOM     19  C   UNL     1      22.078   2.275  48.239  1.00  0.00    +0.044 C 
ENDBRANCH   1  13
BRANCH  11  20
ATOM     20  C   UNL     1      22.817   0.268  52.589  1.00  0.00    +0.054 C 
ATOM     21  C   UNL     1      21.493   0.222  52.842  1.00  0.00    +0.119 C 
ATOM     22  C   UNL     1      20.594   0.599  51.804  1.00  0.00    +0.105 C 
ATOM     23  N   UNL     1      19.832   0.918  50.987  1.00  0.00    -0.192 NA
BRANCH  21  24
ATOM     24  C   UNL     1      20.932  -0.174  54.172  1.00  0.00    +0.259 C 
ATOM     25  N   UNL     1      20.624  -1.491  54.351  1.00  0.00    -0.365 N 
ATOM     26  O   UNL     1      20.745   0.609  55.097  1.00  0.00    -0.269 OA
ATOM     27  H   UNL     1      20.235  -1.753  55.248  1.00  0.00    +0.159 HD
ATOM     28  H   UNL     1      20.723  -2.220  53.654  1.00  0.00    +0.159 HD
ENDBRANCH  21  24
ENDBRANCH  11  20
TORSDOF 3
ENDMDL
MODEL 2
REMARK VINA RESULT:    -8.634      2.023      5.189
REMARK INTER + INTRA:         -11.117
REMARK INTER:                  -9.862
REMARK INTRA:                  -1.255
REMARK UNBOUND:                -0.969
REMARK SMILES Cc1cccc(C=C2C(=O)N(C)c3ncnc(C=C(C#N)C(N)=O)c32)c1
REMARK SMILES IDX 7 1 8 2 9 3 10 4 11 5 12 6 13 7 14 8 15 9 16 10 17 11 25 12
REMARK SMILES IDX 6 13 2 14 3 15 26 16 4 17 5 18 1 19 18 20 19 21 20 22 21 23
REMARK SMILES IDX 22 24 23 25 24 26
REMARK H PARENT 23 27 23 28
ROOT
ATOM      1  C   UNL     1      25.402   2.518  51.583  1.00  0.00    +0.022 C 
ATOM      2  C   UNL     1      24.285   2.620  50.844  1.00  0.00    +0.054 C 
ATOM      3  C   UNL     1      24.222   3.754  49.848  1.00  0.00    +0.260 C 
ATOM      4  O   UNL     1      25.029   4.658  49.725  1.00  0.00    -0.269 OA
ATOM      5  N   UNL     1      23.086   3.507  49.106  1.00  0.00    -0.295 N 
ATOM      6  C   UNL     1      22.592   4.320  48.030  1.00  0.00    +0.155 C 
ATOM      7  C   UNL     1      22.398   2.384  49.582  1.00  0.00    +0.147 A 
ATOM      8  N   UNL     1      21.249   1.949  49.051  1.00  0.00    -0.218 NA
ATOM      9  C   UNL     1      20.730   0.895  49.684  1.00  0.00    +0.224 A 
ATOM     10  N   UNL     1      21.248   0.288  50.767  1.00  0.00    -0.236 NA
ATOM     11  C   UNL     1      22.399   0.795  51.275  1.00  0.00    +0.078 A 
ATOM     12  C   UNL     1      23.065   1.829  50.667  1.00  0.00    +0.056 A 
ENDROOT
BRANCH   1  13
ATOM     13  C   UNL     1      25.793   1.448  52.497  1.00  0.00    -0.025 A 
ATOM     14  C   UNL     1      26.593  -0.816  52.892  1.00  0.00    -0.051 A 
ATOM     15  C   UNL     1      26.643  -0.543  54.264  1.00  0.00    +0.003 A 
ATOM     16  C   UNL     1      26.188   0.196  52.010  1.00  0.00    +0.011 A 
ATOM     17  C   UNL     1      26.277   0.712  54.750  1.00  0.00    +0.001 A 
ATOM     18  C   UNL     1      25.855   1.706  53.869  1.00  0.00    +0.008 A 
ATOM     19  C   UNL     1      27.033  -2.150  52.367  1.00  0.00    +0.044 C 
ENDBRANCH   1  13
BRANCH  11  20
ATOM     20  C   UNL     1      22.786   0.119  52.508  1.00  0.00    +0.054 C 
ATOM     21  C   UNL     1      22.011  -0.126  53.584  1.00  0.00    +0.119 C 
ATOM     22  C   UNL     1      22.554  -0.907  54.644  1.00  0.00    +0.105 C 
ATOM     23  N   UNL     1      22.957  -1.557  55.518  1.00  0.00    -0.192 NA
BRANCH  21  24
ATOM     24  C   UNL     1      20.600   0.360  53.697  1.00  0.00    +0.259 C 
ATOM     25  N   UNL     1      19.616  -0.585  53.723  1.00  0.00    -0.365 N 
ATOM     26  O   UNL     1      20.287   1.543  53.773  1.00  0.00    -0.269 OA
ATOM     27  H   UNL     1      18.662  -0.252  53.787  1.00  0.00    +0.159 HD
ATOM     28  H   UNL     1      19.757  -1.586  53.652  1.00  0.00    +0.159 HD
ENDBRANCH  21  24
ENDBRANCH  11  20
TORSDOF 3
ENDMDL
MODEL 3
REMARK VINA RESULT:    -8.274      2.487      4.894
REMARK INTER + INTRA:         -10.694
REMARK INTER:                  -8.936
REMARK INTRA:                  -1.758
REMARK UNBOUND:                -0.969
REMARK SMILES Cc1cccc(C=C2C(=O)N(C)c3ncnc(C=C(C#N)C(N)=O)c32)c1
REMARK SMILES IDX 7 1 8 2 9 3 10 4 11 5 12 6 13 7 14 8 15 9 16 10 17 11 25 12
REMARK SMILES IDX 6 13 2 14 3 15 26 16 4 17 5 18 1 19 18 20 19 21 20 22 21 23
REMARK SMILES IDX 22 24 23 25 24 26
REMARK H PARENT 23 27 23 28
ROOT
ATOM      1  C   UNL     1      20.633   1.209  50.719  1.00  0.00    +0.022 C 
ATOM      2  C   UNL     1      21.397   0.776  51.736  1.00  0.00    +0.054 C 
ATOM      3  C   UNL     1      20.740  -0.132  52.749  1.00  0.00    +0.260 C 
ATOM      4  O   UNL     1      19.559  -0.419  52.808  1.00  0.00    -0.269 OA
ATOM      5  N   UNL     1      21.776  -0.575  53.546  1.00  0.00    -0.295 N 
ATOM      6  C   UNL     1      21.650  -1.463  54.667  1.00  0.00    +0.155 C 
ATOM      7  C   UNL     1      22.991   0.016  53.181  1.00  0.00    +0.147 A 
ATOM      8  N   UNL     1      24.143  -0.227  53.817  1.00  0.00    -0.218 NA
ATOM      9  C   UNL     1      25.175   0.477  53.346  1.00  0.00    +0.224 A 
ATOM     10  N   UNL     1      25.130   1.374  52.345  1.00  0.00    -0.236 NA
ATOM     11  C   UNL     1      23.926   1.597  51.761  1.00  0.00    +0.078 A 
ATOM     12  C   UNL     1      22.809   0.880  52.108  1.00  0.00    +0.056 A 
ENDROOT
BRANCH   1  13
ATOM     13  C   UNL     1      21.039   1.957  49.532  1.00  0.00    -0.025 A 
ATOM     14  C   UNL     1      21.044   4.002  48.213  1.00  0.00    -0.051 A 
ATOM     15  C   UNL     1      21.922   3.397  47.305  1.00  0.00    +0.003 A 
ATOM     16  C   UNL     1      20.625   3.280  49.339  1.00  0.00    +0.011 A 
ATOM     17  C   UNL     1      22.359   2.087  47.508  1.00  0.00    +0.001 A 
ATOM     18  C   UNL     1      21.920   1.369  48.619  1.00  0.00    +0.008 A 
ATOM     19  C   UNL     1      20.615   5.426  48.019  1.00  0.00    +0.044 C 
ENDBRANCH   1  13
BRANCH  11  20
ATOM     20  C   UNL     1      23.997   2.669  50.774  1.00  0.00    +0.054 C 
ATOM     21  C   UNL     1      23.678   3.967  50.954  1.00  0.00    +0.119 C 
ATOM     22  C   UNL     1      23.931   4.878  49.889  1.00  0.00    +0.105 C 
ATOM     23  N   UNL     1      24.142   5.653  49.049  1.00  0.00    -0.192 NA
BRANCH  21  24
ATOM     24  C   UNL     1      23.102   4.494  52.231  1.00  0.00    +0.259 C 
ATOM     25  N   UNL     1      23.957   5.125  53.087  1.00  0.00    -0.365 N 
ATOM     26  O   UNL     1      21.919   4.395  52.540  1.00  0.00    -0.269 OA
ATOM     27  H   UNL     1      23.566   5.470  53.954  1.00  0.00    +0.159 HD
ATOM     28  H   UNL     1      24.951   5.250  52.941  1.00  0.00    +0.159 HD
ENDBRANCH  21  24
ENDBRANCH  11  20
TORSDOF 3
ENDMDL
MODEL 4
REMARK VINA RESULT:    -8.266      2.661      4.585
REMARK INTER + INTRA:         -10.684
REMARK INTER:                  -8.906
REMARK INTRA:                  -1.778
REMARK UNBOUND:                -0.969
REMARK SMILES Cc1cccc(C=C2C(=O)N(C)c3ncnc(C=C(C#N)C(N)=O)c32)c1
REMARK SMILES IDX 7 1 8 2 9 3 10 4 11 5 12 6 13 7 14 8 15 9 16 10 17 11 25 12
REMARK SMILES IDX 6 13 2 14 3 15 26 16 4 17 5 18 1 19 18 20 19 21 20 22 21 23
REMARK SMILES IDX 22 24 23 25 24 26
REMARK H PARENT 23 27 23 28
ROOT
ATOM      1  C   UNL     1      21.819   0.737  51.845  1.00  0.00    +0.022 C 
ATOM      2  C   UNL     1      23.073   0.797  52.320  1.00  0.00    +0.054 C 
ATOM      3  C   UNL     1      23.425  -0.141  53.450  1.00  0.00    +0.260 C 
ATOM      4  O   UNL     1      22.658  -0.865  54.058  1.00  0.00    -0.269 OA
ATOM      5  N   UNL     1      24.791  -0.013  53.601  1.00  0.00    -0.295 N 
ATOM      6  C   UNL     1      25.597  -0.706  54.567  1.00  0.00    +0.155 C 
ATOM      7  C   UNL     1      25.312   0.956  52.735  1.00  0.00    +0.147 A 
ATOM      8  N   UNL     1      26.608   1.288  52.704  1.00  0.00    -0.218 NA
ATOM      9  C   UNL     1      26.889   2.270  51.844  1.00  0.00    +0.224 A 
ATOM     10  N   UNL     1      26.005   2.920  51.067  1.00  0.00    -0.236 NA
ATOM     11  C   UNL     1      24.702   2.556  51.167  1.00  0.00    +0.078 A 
ATOM     12  C   UNL     1      24.301   1.510  51.960  1.00  0.00    +0.056 A 
ENDROOT
BRANCH   1  13
ATOM     13  C   UNL     1      21.257   1.405  50.674  1.00  0.00    -0.025 A 
ATOM     14  C   UNL     1      19.845   3.123  49.686  1.00  0.00    -0.051 A 
ATOM     15  C   UNL     1      20.285   2.735  48.416  1.00  0.00    +0.003 A 
ATOM     16  C   UNL     1      20.355   2.466  50.815  1.00  0.00    +0.011 A 
ATOM     17  C   UNL     1      21.205   1.695  48.272  1.00  0.00    +0.001 A 
ATOM     18  C   UNL     1      21.691   1.033  49.399  1.00  0.00    +0.008 A 
ATOM     19  C   UNL     1      18.893   4.272  49.841  1.00  0.00    +0.044 C 
ENDBRANCH   1  13
BRANCH  11  20
ATOM     20  C   UNL     1      23.841   3.412  50.360  1.00  0.00    +0.054 C 
ATOM     21  C   UNL     1      23.347   4.623  50.693  1.00  0.00    +0.119 C 
ATOM     22  C   UNL     1      22.617   5.349  49.709  1.00  0.00    +0.105 C 
ATOM     23  N   UNL     1      22.034   5.977  48.926  1.00  0.00    -0.192 NA
BRANCH  21  24
ATOM     24  C   UNL     1      23.562   5.246  52.037  1.00  0.00    +0.259 C 
ATOM     25  N   UNL     1      24.282   6.404  52.079  1.00  0.00    -0.365 N 
ATOM     26  O   UNL     1      23.126   4.781  53.084  1.00  0.00    -0.269 OA
ATOM     27  H   UNL     1      24.435   6.816  52.990  1.00  0.00    +0.159 HD
ATOM     28  H   UNL     1      24.701   6.867  51.281  1.00  0.00    +0.159 HD
ENDBRANCH  21  24
ENDBRANCH  11  20
TORSDOF 3
ENDMDL
MODEL 5
REMARK VINA RESULT:    -7.645      3.978      5.953
REMARK INTER + INTRA:          -9.954
REMARK INTER:                  -8.695
REMARK INTRA:                  -1.260
REMARK UNBOUND:                -0.969
REMARK SMILES Cc1cccc(C=C2C(=O)N(C)c3ncnc(C=C(C#N)C(N)=O)c32)c1
REMARK SMILES IDX 7 1 8 2 9 3 10 4 11 5 12 6 13 7 14 8 15 9 16 10 17 11 25 12
REMARK SMILES IDX 6 13 2 14 3 15 26 16 4 17 5 18 1 19 18 20 19 21 20 22 21 23
REMARK SMILES IDX 22 24 23 25 24 26
REMARK H PARENT 23 27 23 28
ROOT
ATOM      1  C   UNL     1      24.854   3.252  49.248  1.00  0.00    +0.022 C 
ATOM      2  C   UNL     1      25.213   4.532  49.442  1.00  0.00    +0.054 C 
ATOM      3  C   UNL     1      26.624   4.914  49.064  1.00  0.00    +0.260 C 
ATOM      4  O   UNL     1      27.512   4.158  48.713  1.00  0.00    -0.269 OA
ATOM      5  N   UNL     1      26.658   6.289  49.174  1.00  0.00    -0.295 N 
ATOM      6  C   UNL     1      27.799   7.123  48.924  1.00  0.00    +0.155 C 
ATOM      7  C   UNL     1      25.441   6.793  49.648  1.00  0.00    +0.147 A 
ATOM      8  N   UNL     1      25.224   8.095  49.868  1.00  0.00    -0.218 NA
ATOM      9  C   UNL     1      24.015   8.361  50.369  1.00  0.00    +0.224 A 
ATOM     10  N   UNL     1      23.065   7.457  50.665  1.00  0.00    -0.236 NA
ATOM     11  C   UNL     1      23.357   6.151  50.447  1.00  0.00    +0.078 A 
ATOM     12  C   UNL     1      24.538   5.760  49.866  1.00  0.00    +0.056 A 
ENDROOT
BRANCH   1  13
ATOM     13  C   UNL     1      23.530   2.650  49.375  1.00  0.00    -0.025 A 
ATOM     14  C   UNL     1      21.975   1.167  50.518  1.00  0.00    -0.051 A 
ATOM     15  C   UNL     1      20.956   1.599  49.661  1.00  0.00    +0.003 A 
ATOM     16  C   UNL     1      23.258   1.717  50.383  1.00  0.00    +0.011 A 
ATOM     17  C   UNL     1      21.217   2.549  48.673  1.00  0.00    +0.001 A 
ATOM     18  C   UNL     1      22.500   3.074  48.531  1.00  0.00    +0.008 A 
ATOM     19  C   UNL     1      21.681   0.183  51.611  1.00  0.00    +0.044 C 
ENDBRANCH   1  13
BRANCH  11  20
ATOM     20  C   UNL     1      22.290   5.275  50.916  1.00  0.00    +0.054 C 
ATOM     21  C   UNL     1      22.283   4.520  52.034  1.00  0.00    +0.119 C 
ATOM     22  C   UNL     1      21.088   3.822  52.371  1.00  0.00    +0.105 C 
ATOM     23  N   UNL     1      20.125   3.255  52.687  1.00  0.00    -0.192 NA
BRANCH  21  24
ATOM     24  C   UNL     1      23.463   4.413  52.949  1.00  0.00    +0.259 C 
ATOM     25  N   UNL     1      23.805   5.527  53.658  1.00  0.00    -0.365 N 
ATOM     26  O   UNL     1      24.122   3.389  53.098  1.00  0.00    -0.269 OA
ATOM     27  H   UNL     1      24.610   5.453  54.267  1.00  0.00    +0.159 HD
ATOM     28  H   UNL     1      23.343   6.426  53.604  1.00  0.00    +0.159 HD
ENDBRANCH  21  24
ENDBRANCH  11  20
TORSDOF 3
ENDMDL
MODEL 6
REMARK VINA RESULT:    -7.641      2.376      4.119
REMARK INTER + INTRA:          -9.951
REMARK INTER:                  -8.548
REMARK INTRA:                  -1.403
REMARK UNBOUND:                -0.969
REMARK SMILES Cc1cccc(C=C2C(=O)N(C)c3ncnc(C=C(C#N)C(N)=O)c32)c1
REMARK SMILES IDX 7 1 8 2 9 3 10 4 11 5 12 6 13 7 14 8 15 9 16 10 17 11 25 12
REMARK SMILES IDX 6 13 2 14 3 15 26 16 4 17 5 18 1 19 18 20 19 21 20 22 21 23
REMARK SMILES IDX 22 24 23 25 24 26
REMARK H PARENT 23 27 23 28
ROOT
ATOM      1  C   UNL     1      23.695   1.716  51.815  1.00  0.00    +0.022 C 
ATOM      2  C   UNL     1      22.970   0.798  52.476  1.00  0.00    +0.054 C 
ATOM      3  C   UNL     1      23.686  -0.011  53.531  1.00  0.00    +0.260 C 
ATOM      4  O   UNL     1      24.881  -0.004  53.766  1.00  0.00    -0.269 OA
ATOM      5  N   UNL     1      22.686  -0.714  54.172  1.00  0.00    -0.295 N 
ATOM      6  C   UNL     1      22.873  -1.638  55.256  1.00  0.00    +0.155 C 
ATOM      7  C   UNL     1      21.439  -0.482  53.582  1.00  0.00    +0.147 A 
ATOM      8  N   UNL     1      20.310  -1.067  54.001  1.00  0.00    -0.218 NA
ATOM      9  C   UNL     1      19.239  -0.751  53.270  1.00  0.00    +0.224 A 
ATOM     10  N   UNL     1      19.224   0.055  52.193  1.00  0.00    -0.236 NA
ATOM     11  C   UNL     1      20.406   0.593  51.801  1.00  0.00    +0.078 A 
ATOM     12  C   UNL     1      21.561   0.401  52.517  1.00  0.00    +0.056 A 
ENDROOT
BRANCH   1  13
ATOM     13  C   UNL     1      23.234   2.731  50.871  1.00  0.00    -0.025 A 
ATOM     14  C   UNL     1      22.194   4.881  50.408  1.00  0.00    -0.051 A 
ATOM     15  C   UNL     1      22.466   4.704  49.046  1.00  0.00    +0.003 A 
ATOM     16  C   UNL     1      22.604   3.897  51.319  1.00  0.00    +0.011 A 
ATOM     17  C   UNL     1      23.119   3.555  48.599  1.00  0.00    +0.001 A 
ATOM     18  C   UNL     1      23.504   2.571  49.509  1.00  0.00    +0.008 A 
ATOM     19  C   UNL     1      21.536   6.139  50.893  1.00  0.00    +0.044 C 
ENDBRANCH   1  13
BRANCH  11  20
ATOM     20  C   UNL     1      20.268   1.349  50.562  1.00  0.00    +0.054 C 
ATOM     21  C   UNL     1      19.386   2.335  50.299  1.00  0.00    +0.119 C 
ATOM     22  C   UNL     1      19.495   3.026  49.059  1.00  0.00    +0.105 C 
ATOM     23  N   UNL     1      19.567   3.625  48.067  1.00  0.00    -0.192 NA
BRANCH  21  24
ATOM     24  C   UNL     1      18.322   2.752  51.266  1.00  0.00    +0.259 C 
ATOM     25  N   UNL     1      17.126   2.099  51.197  1.00  0.00    -0.365 N 
ATOM     26  O   UNL     1      18.470   3.632  52.108  1.00  0.00    -0.269 OA
ATOM     27  H   UNL     1      16.406   2.392  51.845  1.00  0.00    +0.159 HD
ATOM     28  H   UNL     1      16.889   1.370  50.535  1.00  0.00    +0.159 HD
ENDBRANCH  21  24
ENDBRANCH  11  20
TORSDOF 3
ENDMDL
MODEL 7
REMARK VINA RESULT:    -7.542      1.647      2.444
REMARK INTER + INTRA:          -9.834
REMARK INTER:                  -8.447
REMARK INTRA:                  -1.387
REMARK UNBOUND:                -0.969
REMARK SMILES Cc1cccc(C=C2C(=O)N(C)c3ncnc(C=C(C#N)C(N)=O)c32)c1
REMARK SMILES IDX 7 1 8 2 9 3 10 4 11 5 12 6 13 7 14 8 15 9 16 10 17 11 25 12
REMARK SMILES IDX 6 13 2 14 3 15 26 16 4 17 5 18 1 19 18 20 19 21 20 22 21 23
REMARK SMILES IDX 22 24 23 25 24 26
REMARK H PARENT 23 27 23 28
ROOT
ATOM      1  C   UNL     1      25.134   2.977  51.255  1.00  0.00    +0.022 C 
ATOM      2  C   UNL     1      25.029   1.925  52.084  1.00  0.00    +0.054 C 
ATOM      3  C   UNL     1      26.233   1.599  52.935  1.00  0.00    +0.260 C 
ATOM      4  O   UNL     1      27.333   2.116  52.866  1.00  0.00    -0.269 OA
ATOM      5  N   UNL     1      25.791   0.629  53.812  1.00  0.00    -0.295 N 
ATOM      6  C   UNL     1      26.584  -0.012  54.823  1.00  0.00    +0.155 C 
ATOM      7  C   UNL     1      24.465   0.267  53.548  1.00  0.00    +0.147 A 
ATOM      8  N   UNL     1      23.811  -0.673  54.240  1.00  0.00    -0.218 NA
ATOM      9  C   UNL     1      22.573  -0.903  53.795  1.00  0.00    +0.224 A 
ATOM     10  N   UNL     1      21.983  -0.299  52.749  1.00  0.00    -0.236 NA
ATOM     11  C   UNL     1      22.709   0.624  52.070  1.00  0.00    +0.078 A 
ATOM     12  C   UNL     1      23.965   0.999  52.478  1.00  0.00    +0.056 A 
ENDROOT
BRANCH   1  13
ATOM     13  C   UNL     1      24.093   3.604  50.446  1.00  0.00    -0.025 A 
ATOM     14  C   UNL     1      22.201   5.119  50.226  1.00  0.00    -0.051 A 
ATOM     15  C   UNL     1      22.183   4.874  48.848  1.00  0.00    +0.003 A 
ATOM     16  C   UNL     1      23.177   4.496  51.017  1.00  0.00    +0.011 A 
ATOM     17  C   UNL     1      23.112   4.007  48.271  1.00  0.00    +0.001 A 
ATOM     18  C   UNL     1      24.066   3.375  49.067  1.00  0.00    +0.008 A 
ATOM     19  C   UNL     1      21.234   6.089  50.837  1.00  0.00    +0.044 C 
ENDBRANCH   1  13
BRANCH  11  20
ATOM     20  C   UNL     1      21.995   1.114  50.897  1.00  0.00    +0.054 C 
ATOM     21  C   UNL     1      20.749   1.630  50.854  1.00  0.00    +0.119 C 
ATOM     22  C   UNL     1      20.280   2.160  49.619  1.00  0.00    +0.105 C 
ATOM     23  N   UNL     1      19.871   2.620  48.634  1.00  0.00    -0.192 NA
BRANCH  21  24
ATOM     24  C   UNL     1      19.856   1.697  52.054  1.00  0.00    +0.259 C 
ATOM     25  N   UNL     1      19.059   0.617  52.299  1.00  0.00    -0.365 N 
ATOM     26  O   UNL     1      19.810   2.655  52.819  1.00  0.00    -0.269 OA
ATOM     27  H   UNL     1      18.449   0.672  53.104  1.00  0.00    +0.159 HD
ATOM     28  H   UNL     1      19.005  -0.217  51.728  1.00  0.00    +0.159 HD
ENDBRANCH  21  24
ENDBRANCH  11  20
TORSDOF 3
ENDMDL
MODEL 8
REMARK VINA RESULT:    -7.499      2.479      3.617
REMARK INTER + INTRA:          -9.783
REMARK INTER:                  -7.968
REMARK INTRA:                  -1.815
REMARK UNBOUND:                -0.969
REMARK SMILES Cc1cccc(C=C2C(=O)N(C)c3ncnc(C=C(C#N)C(N)=O)c32)c1
REMARK SMILES IDX 7 1 8 2 9 3 10 4 11 5 12 6 13 7 14 8 15 9 16 10 17 11 25 12
REMARK SMILES IDX 6 13 2 14 3 15 26 16 4 17 5 18 1 19 18 20 19 21 20 22 21 23
REMARK SMILES IDX 22 24 23 25 24 26
REMARK H PARENT 23 27 23 28
ROOT
ATOM      1  C   UNL     1      24.881   3.124  50.829  1.00  0.00    +0.022 C 
ATOM      2  C   UNL     1      24.381   2.129  51.581  1.00  0.00    +0.054 C 
ATOM      3  C   UNL     1      25.354   1.081  52.067  1.00  0.00    +0.260 C 
ATOM      4  O   UNL     1      26.525   0.975  51.752  1.00  0.00    -0.269 OA
ATOM      5  N   UNL     1      24.629   0.316  52.958  1.00  0.00    -0.295 N 
ATOM      6  C   UNL     1      25.123  -0.821  53.683  1.00  0.00    +0.155 C 
ATOM      7  C   UNL     1      23.294   0.733  53.022  1.00  0.00    +0.147 A 
ATOM      8  N   UNL     1      22.377   0.136  53.792  1.00  0.00    -0.218 NA
ATOM      9  C   UNL     1      21.153   0.654  53.668  1.00  0.00    +0.224 A 
ATOM     10  N   UNL     1      20.800   1.665  52.854  1.00  0.00    -0.236 NA
ATOM     11  C   UNL     1      21.769   2.207  52.077  1.00  0.00    +0.078 A 
ATOM     12  C   UNL     1      23.080   1.810  52.171  1.00  0.00    +0.056 A 
ENDROOT
BRANCH   1  13
ATOM     13  C   UNL     1      24.212   4.335  50.361  1.00  0.00    -0.025 A 
ATOM     14  C   UNL     1      23.170   5.630  48.585  1.00  0.00    -0.051 A 
ATOM     15  C   UNL     1      22.834   6.616  49.520  1.00  0.00    +0.003 A 
ATOM     16  C   UNL     1      23.841   4.478  49.019  1.00  0.00    +0.011 A 
ATOM     17  C   UNL     1      23.179   6.464  50.864  1.00  0.00    +0.001 A 
ATOM     18  C   UNL     1      23.865   5.325  51.284  1.00  0.00    +0.008 A 
ATOM     19  C   UNL     1      22.756   5.774  47.151  1.00  0.00    +0.044 C 
ENDBRANCH   1  13
BRANCH  11  20
ATOM     20  C   UNL     1      21.230   3.210  51.165  1.00  0.00    +0.054 C 
ATOM     21  C   UNL     1      20.597   2.994  49.994  1.00  0.00    +0.119 C 
ATOM     22  C   UNL     1      20.043   4.113  49.309  1.00  0.00    +0.105 C 
ATOM     23  N   UNL     1      19.561   4.999  48.734  1.00  0.00    -0.192 NA
BRANCH  21  24
ATOM     24  C   UNL     1      20.426   1.629  49.403  1.00  0.00    +0.259 C 
ATOM     25  N   UNL     1      19.204   1.039  49.543  1.00  0.00    -0.365 N 
ATOM     26  O   UNL     1      21.310   1.028  48.802  1.00  0.00    -0.269 OA
ATOM     27  H   UNL     1      19.096   0.112  49.151  1.00  0.00    +0.159 HD
ATOM     28  H   UNL     1      18.409   1.435  50.030  1.00  0.00    +0.159 HD
ENDBRANCH  21  24
ENDBRANCH  11  20
TORSDOF 3
ENDMDL
MODEL 9
REMARK VINA RESULT:    -7.380      2.292      4.344
REMARK INTER + INTRA:          -9.643
REMARK INTER:                  -8.414
REMARK INTRA:                  -1.229
REMARK UNBOUND:                -0.969
REMARK SMILES Cc1cccc(C=C2C(=O)N(C)c3ncnc(C=C(C#N)C(N)=O)c32)c1
REMARK SMILES IDX 7 1 8 2 9 3 10 4 11 5 12 6 13 7 14 8 15 9 16 10 17 11 25 12
REMARK SMILES IDX 6 13 2 14 3 15 26 16 4 17 5 18 1 19 18 20 19 21 20 22 21 23
REMARK SMILES IDX 22 24 23 25 24 26
REMARK H PARENT 23 27 23 28
ROOT
ATOM      1  C   UNL     1      25.188   1.572  52.402  1.00  0.00    +0.022 C 
ATOM      2  C   UNL     1      24.131   0.809  52.726  1.00  0.00    +0.054 C 
ATOM      3  C   UNL     1      24.312  -0.165  53.866  1.00  0.00    +0.260 C 
ATOM      4  O   UNL     1      25.351  -0.417  54.448  1.00  0.00    -0.269 OA
ATOM      5  N   UNL     1      23.047  -0.659  54.109  1.00  0.00    -0.295 N 
ATOM      6  C   UNL     1      22.704  -1.633  55.107  1.00  0.00    +0.155 C 
ATOM      7  C   UNL     1      22.115  -0.151  53.196  1.00  0.00    +0.147 A 
ATOM      8  N   UNL     1      20.822  -0.496  53.201  1.00  0.00    -0.218 NA
ATOM      9  C   UNL     1      20.114   0.060  52.215  1.00  0.00    +0.224 A 
ATOM     10  N   UNL     1      20.592   0.883  51.264  1.00  0.00    -0.236 NA
ATOM     11  C   UNL     1      21.917   1.170  51.297  1.00  0.00    +0.078 A 
ATOM     12  C   UNL     1      22.732   0.718  52.305  1.00  0.00    +0.056 A 
ENDROOT
BRANCH   1  13
ATOM     13  C   UNL     1      25.250   2.689  51.462  1.00  0.00    -0.025 A 
ATOM     14  C   UNL     1      24.663   4.965  50.832  1.00  0.00    -0.051 A 
ATOM     15  C   UNL     1      25.479   4.846  49.700  1.00  0.00    +0.003 A 
ATOM     16  C   UNL     1      24.573   3.886  51.723  1.00  0.00    +0.011 A 
ATOM     17  C   UNL     1      26.177   3.663  49.451  1.00  0.00    +0.001 A 
ATOM     18  C   UNL     1      26.064   2.588  50.331  1.00  0.00    +0.008 A 
ATOM     19  C   UNL     1      23.952   6.253  51.122  1.00  0.00    +0.044 C 
ENDBRANCH   1  13
BRANCH  11  20
ATOM     20  C   UNL     1      22.322   1.975  50.150  1.00  0.00    +0.054 C 
ATOM     21  C   UNL     1      21.705   3.070  49.661  1.00  0.00    +0.119 C 
ATOM     22  C   UNL     1      22.331   3.780  48.597  1.00  0.00    +0.105 C 
ATOM     23  N   UNL     1      22.823   4.396  47.744  1.00  0.00    -0.192 NA
BRANCH  21  24
ATOM     24  C   UNL     1      20.411   3.587  50.209  1.00  0.00    +0.259 C 
ATOM     25  N   UNL     1      19.263   3.131  49.631  1.00  0.00    -0.365 N 
ATOM     26  O   UNL     1      20.331   4.381  51.140  1.00  0.00    -0.269 OA
ATOM     27  H   UNL     1      18.391   3.491  49.997  1.00  0.00    +0.159 HD
ATOM     28  H   UNL     1      19.211   2.488  48.849  1.00  0.00    +0.159 HD
ENDBRANCH  21  24
ENDBRANCH  11  20
TORSDOF 3
ENDMDL
