MODEL 1
REMARK VINA RESULT:    -5.739      0.000      0.000
REMARK INTER + INTRA:          -8.801
REMARK INTER:                  -8.256
REMARK INTRA:                  -0.545
REMARK UNBOUND:                -0.545
REMARK SMILES C[N+](C)(C)C[C@@H](O)COc1ccc(OC(F)(F)F)cn1
REMARK SMILES IDX 8 1 6 2 5 3 2 4 1 5 3 6 4 7 7 8 9 10 10 11 11 12 20 13 12 14
REMARK SMILES IDX 19 15 13 16 14 17 15 18 16 19 17 20 18 21
REMARK H PARENT 7 9
ROOT
ATOM      1  C   UNL     1      22.206  -0.068  53.288  1.00  0.00    +0.269 C 
ENDROOT
BRANCH   1   2
ATOM      2  C   UNL     1      20.904   0.638  53.700  1.00  0.00    +0.206 C 
BRANCH   2   3
ATOM      3  C   UNL     1      19.777   0.274  52.703  1.00  0.00    +0.299 C 
BRANCH   3   4
ATOM      4  N   UNL     1      19.464   1.358  51.629  1.00  0.00    -0.329 N 
ATOM      5  C   UNL     1      17.971   1.469  51.374  1.00  0.00    +0.334 C 
ATOM      6  C   UNL     1      20.189   1.073  50.316  1.00  0.00    +0.334 C 
ATOM      7  C   UNL     1      19.969   2.697  52.170  1.00  0.00    +0.334 C 
ENDBRANCH   3   4
ENDBRANCH   2   3
BRANCH   2   8
ATOM      8  O   UNL     1      20.536   0.240  55.024  1.00  0.00    -0.384 OA
ATOM      9  H   UNL     1      20.441   1.045  55.570  1.00  0.00    +0.211 HD
ENDBRANCH   2   8
ENDBRANCH   1   2
BRANCH   1  10
ATOM     10  O   UNL     1      23.190   0.923  52.988  1.00  0.00    -0.475 OA
BRANCH  10  11
ATOM     11  C   UNL     1      24.477   0.418  53.017  1.00  0.00    +0.213 A 
ATOM     12  C   UNL     1      25.370   0.935  52.096  1.00  0.00    +0.072 A 
ATOM     13  N   UNL     1      24.793  -0.543  53.907  1.00  0.00    -0.218 NA
ATOM     14  C   UNL     1      26.673   0.439  52.094  1.00  0.00    +0.054 A 
ATOM     15  C   UNL     1      26.069  -1.006  53.881  1.00  0.00    +0.161 A 
ATOM     16  C   UNL     1      27.045  -0.553  53.000  1.00  0.00    +0.148 A 
BRANCH  16  17
ATOM     17  O   UNL     1      28.341  -0.964  52.910  1.00  0.00    -0.404 OA
BRANCH  17  18
ATOM     18  C   UNL     1      29.280  -0.348  53.778  1.00  0.00    +0.573 C 
ATOM     19  F   UNL     1      28.759  -0.203  55.014  1.00  0.00    -0.132 F 
ATOM     20  F   UNL     1      30.376  -1.127  53.861  1.00  0.00    -0.132 F 
ATOM     21  F   UNL     1      29.645   0.861  53.302  1.00  0.00    -0.132 F 
ENDBRANCH  17  18
ENDBRANCH  16  17
ENDBRANCH  10  11
ENDBRANCH   1  10
TORSDOF 8
ENDMDL
MODEL 2
REMARK VINA RESULT:    -5.691      2.541      3.212
REMARK INTER + INTRA:          -8.731
REMARK INTER:                  -8.065
REMARK INTRA:                  -0.667
REMARK UNBOUND:                -0.545
REMARK SMILES C[N+](C)(C)C[C@@H](O)COc1ccc(OC(F)(F)F)cn1
REMARK SMILES IDX 8 1 6 2 5 3 2 4 1 5 3 6 4 7 7 8 9 10 10 11 11 12 20 13 12 14
REMARK SMILES IDX 19 15 13 16 14 17 15 18 16 19 17 20 18 21
REMARK H PARENT 7 9
ROOT
ATOM      1  C   UNL     1      24.991   2.512  50.780  1.00  0.00    +0.269 C 
ENDROOT
BRANCH   1   2
ATOM      2  C   UNL     1      23.841   3.315  51.409  1.00  0.00    +0.206 C 
BRANCH   2   3
ATOM      3  C   UNL     1      22.973   2.379  52.287  1.00  0.00    +0.299 C 
BRANCH   3   4
ATOM      4  N   UNL     1      21.552   2.073  51.726  1.00  0.00    -0.329 N 
ATOM      5  C   UNL     1      21.569   0.861  50.810  1.00  0.00    +0.334 C 
ATOM      6  C   UNL     1      20.973   3.272  50.980  1.00  0.00    +0.334 C 
ATOM      7  C   UNL     1      20.645   1.772  52.920  1.00  0.00    +0.334 C 
ENDBRANCH   3   4
ENDBRANCH   2   3
BRANCH   2   8
ATOM      8  O   UNL     1      24.372   4.380  52.204  1.00  0.00    -0.384 OA
ATOM      9  H   UNL     1      25.033   4.002  52.818  1.00  0.00    +0.211 HD
ENDBRANCH   2   8
ENDBRANCH   1   2
BRANCH   1  10
ATOM     10  O   UNL     1      26.230   3.012  51.286  1.00  0.00    -0.475 OA
BRANCH  10  11
ATOM     11  C   UNL     1      26.905   2.078  52.050  1.00  0.00    +0.213 A 
ATOM     12  C   UNL     1      26.415   0.785  52.031  1.00  0.00    +0.072 A 
ATOM     13  N   UNL     1      27.974   2.462  52.774  1.00  0.00    -0.218 NA
ATOM     14  C   UNL     1      27.068  -0.177  52.799  1.00  0.00    +0.054 A 
ATOM     15  C   UNL     1      28.590   1.503  53.512  1.00  0.00    +0.161 A 
ATOM     16  C   UNL     1      28.182   0.174  53.561  1.00  0.00    +0.148 A 
BRANCH  16  17
ATOM     17  O   UNL     1      28.742  -0.843  54.272  1.00  0.00    -0.404 OA
BRANCH  17  18
ATOM     18  C   UNL     1      29.721  -1.633  53.615  1.00  0.00    +0.573 C 
ATOM     19  F   UNL     1      30.723  -1.950  54.463  1.00  0.00    -0.132 F 
ATOM     20  F   UNL     1      29.147  -2.773  53.182  1.00  0.00    -0.132 F 
ATOM     21  F   UNL     1      30.228  -0.975  52.551  1.00  0.00    -0.132 F 
ENDBRANCH  17  18
ENDBRANCH  16  17
ENDBRANCH  10  11
ENDBRANCH   1  10
TORSDOF 8
ENDMDL
MODEL 3
REMARK VINA RESULT:    -5.682      3.442      4.250
REMARK INTER + INTRA:          -8.718
REMARK INTER:                  -8.056
REMARK INTRA:                  -0.662
REMARK UNBOUND:                -0.545
REMARK SMILES C[N+](C)(C)C[C@@H](O)COc1ccc(OC(F)(F)F)cn1
REMARK SMILES IDX 8 1 6 2 5 3 2 4 1 5 3 6 4 7 7 8 9 10 10 11 11 12 20 13 12 14
REMARK SMILES IDX 19 15 13 16 14 17 15 18 16 19 17 20 18 21
REMARK H PARENT 7 9
ROOT
ATOM      1  C   UNL     1      23.472   4.636  52.987  1.00  0.00    +0.269 C 
ENDROOT
BRANCH   1   2
ATOM      2  C   UNL     1      23.649   5.509  51.735  1.00  0.00    +0.206 C 
BRANCH   2   3
ATOM      3  C   UNL     1      22.262   5.823  51.120  1.00  0.00    +0.299 C 
BRANCH   3   4
ATOM      4  N   UNL     1      22.006   5.207  49.712  1.00  0.00    -0.329 N 
ATOM      5  C   UNL     1      23.233   4.474  49.198  1.00  0.00    +0.334 C 
ATOM      6  C   UNL     1      21.583   6.272  48.703  1.00  0.00    +0.334 C 
ATOM      7  C   UNL     1      20.860   4.204  49.854  1.00  0.00    +0.334 C 
ENDBRANCH   3   4
ENDBRANCH   2   3
BRANCH   2   8
ATOM      8  O   UNL     1      24.318   6.725  52.083  1.00  0.00    -0.384 OA
ATOM      9  H   UNL     1      24.595   6.664  53.019  1.00  0.00    +0.211 HD
ENDBRANCH   2   8
ENDBRANCH   1   2
BRANCH   1  10
ATOM     10  O   UNL     1      22.962   3.362  52.590  1.00  0.00    -0.475 OA
BRANCH  10  11
ATOM     11  C   UNL     1      23.823   2.325  52.902  1.00  0.00    +0.213 A 
ATOM     12  C   UNL     1      23.324   1.042  52.773  1.00  0.00    +0.072 A 
ATOM     13  N   UNL     1      25.071   2.604  53.324  1.00  0.00    -0.218 NA
ATOM     14  C   UNL     1      24.165  -0.025  53.090  1.00  0.00    +0.054 A 
ATOM     15  C   UNL     1      25.866   1.545  53.624  1.00  0.00    +0.161 A 
ATOM     16  C   UNL     1      25.466   0.217  53.526  1.00  0.00    +0.148 A 
BRANCH  16  17
ATOM     17  O   UNL     1      26.200  -0.897  53.807  1.00  0.00    -0.404 OA
BRANCH  17  18
ATOM     18  C   UNL     1      27.145  -1.315  52.835  1.00  0.00    +0.573 C 
ATOM     19  F   UNL     1      26.993  -2.627  52.559  1.00  0.00    -0.132 F 
ATOM     20  F   UNL     1      26.950  -0.611  51.702  1.00  0.00    -0.132 F 
ATOM     21  F   UNL     1      28.404  -1.093  53.268  1.00  0.00    -0.132 F 
ENDBRANCH  17  18
ENDBRANCH  16  17
ENDBRANCH  10  11
ENDBRANCH   1  10
TORSDOF 8
ENDMDL
MODEL 4
REMARK VINA RESULT:    -5.618      4.576      7.985
REMARK INTER + INTRA:          -8.626
REMARK INTER:                  -8.048
REMARK INTRA:                  -0.577
REMARK UNBOUND:                -0.545
REMARK SMILES C[N+](C)(C)C[C@@H](O)COc1ccc(OC(F)(F)F)cn1
REMARK SMILES IDX 8 1 6 2 5 3 2 4 1 5 3 6 4 7 7 8 9 10 10 11 11 12 20 13 12 14
REMARK SMILES IDX 19 15 13 16 14 17 15 18 16 19 17 20 18 21
REMARK H PARENT 7 9
ROOT
ATOM      1  C   UNL     1      25.408   2.103  53.000  1.00  0.00    +0.269 C 
ENDROOT
BRANCH   1   2
ATOM      2  C   UNL     1      26.937   2.173  52.865  1.00  0.00    +0.206 C 
BRANCH   2   3
ATOM      3  C   UNL     1      27.523   0.740  52.826  1.00  0.00    +0.299 C 
BRANCH   3   4
ATOM      4  N   UNL     1      28.472   0.379  54.007  1.00  0.00    -0.329 N 
ATOM      5  C   UNL     1      27.689   0.058  55.268  1.00  0.00    +0.334 C 
ATOM      6  C   UNL     1      29.466   1.502  54.293  1.00  0.00    +0.334 C 
ATOM      7  C   UNL     1      29.264  -0.863  53.594  1.00  0.00    +0.334 C 
ENDBRANCH   3   4
ENDBRANCH   2   3
BRANCH   2   8
ATOM      8  O   UNL     1      27.286   2.879  51.670  1.00  0.00    -0.384 OA
ATOM      9  H   UNL     1      27.299   3.835  51.873  1.00  0.00    +0.211 HD
ENDBRANCH   2   8
ENDBRANCH   1   2
BRANCH   1  10
ATOM     10  O   UNL     1      25.016   0.731  53.067  1.00  0.00    -0.475 OA
BRANCH  10  11
ATOM     11  C   UNL     1      23.643   0.573  53.116  1.00  0.00    +0.213 A 
ATOM     12  C   UNL     1      23.172  -0.683  53.452  1.00  0.00    +0.072 A 
ATOM     13  N   UNL     1      22.845   1.617  52.824  1.00  0.00    -0.218 NA
ATOM     14  C   UNL     1      21.793  -0.877  53.500  1.00  0.00    +0.054 A 
ATOM     15  C   UNL     1      21.506   1.398  52.879  1.00  0.00    +0.161 A 
ATOM     16  C   UNL     1      20.928   0.177  53.210  1.00  0.00    +0.148 A 
BRANCH  16  17
ATOM     17  O   UNL     1      19.601  -0.122  53.286  1.00  0.00    -0.404 OA
BRANCH  17  18
ATOM     18  C   UNL     1      18.853  -0.069  52.082  1.00  0.00    +0.573 C 
ATOM     19  F   UNL     1      19.674  -0.109  51.011  1.00  0.00    -0.132 F 
ATOM     20  F   UNL     1      18.028  -1.134  52.031  1.00  0.00    -0.132 F 
ATOM     21  F   UNL     1      18.109   1.055  52.033  1.00  0.00    -0.132 F 
ENDBRANCH  17  18
ENDBRANCH  16  17
ENDBRANCH  10  11
ENDBRANCH   1  10
TORSDOF 8
ENDMDL
MODEL 5
REMARK VINA RESULT:    -5.524      2.304      2.871
REMARK INTER + INTRA:          -8.491
REMARK INTER:                  -7.790
REMARK INTRA:                  -0.701
REMARK UNBOUND:                -0.545
REMARK SMILES C[N+](C)(C)C[C@@H](O)COc1ccc(OC(F)(F)F)cn1
REMARK SMILES IDX 8 1 6 2 5 3 2 4 1 5 3 6 4 7 7 8 9 10 10 11 11 12 20 13 12 14
REMARK SMILES IDX 19 15 13 16 14 17 15 18 16 19 17 20 18 21
REMARK H PARENT 7 9
ROOT
ATOM      1  C   UNL     1      24.225   3.181  53.163  1.00  0.00    +0.269 C 
ENDROOT
BRANCH   1   2
ATOM      2  C   UNL     1      23.424   4.015  52.151  1.00  0.00    +0.206 C 
BRANCH   2   3
ATOM      3  C   UNL     1      22.321   3.137  51.510  1.00  0.00    +0.299 C 
BRANCH   3   4
ATOM      4  N   UNL     1      22.370   3.040  49.956  1.00  0.00    -0.329 N 
ATOM      5  C   UNL     1      21.484   4.091  49.308  1.00  0.00    +0.334 C 
ATOM      6  C   UNL     1      21.959   1.653  49.467  1.00  0.00    +0.334 C 
ATOM      7  C   UNL     1      23.816   3.287  49.527  1.00  0.00    +0.334 C 
ENDBRANCH   3   4
ENDBRANCH   2   3
BRANCH   2   8
ATOM      8  O   UNL     1      22.834   5.140  52.810  1.00  0.00    -0.384 OA
ATOM      9  H   UNL     1      22.078   5.447  52.272  1.00  0.00    +0.211 HD
ENDBRANCH   2   8
ENDBRANCH   1   2
BRANCH   1  10
ATOM     10  O   UNL     1      23.925   1.799  52.958  1.00  0.00    -0.475 OA
BRANCH  10  11
ATOM     11  C   UNL     1      25.048   0.996  53.034  1.00  0.00    +0.213 A 
ATOM     12  C   UNL     1      26.140   1.379  52.277  1.00  0.00    +0.072 A 
ATOM     13  N   UNL     1      25.025  -0.106  53.809  1.00  0.00    -0.218 NA
ATOM     14  C   UNL     1      27.285   0.585  52.325  1.00  0.00    +0.054 A 
ATOM     15  C   UNL     1      26.154  -0.859  53.835  1.00  0.00    +0.161 A 
ATOM     16  C   UNL     1      27.307  -0.562  53.117  1.00  0.00    +0.148 A 
BRANCH  16  17
ATOM     17  O   UNL     1      28.474  -1.264  53.089  1.00  0.00    -0.404 OA
BRANCH  17  18
ATOM     18  C   UNL     1      29.559  -0.750  53.846  1.00  0.00    +0.573 C 
ATOM     19  F   UNL     1      30.396  -1.744  54.211  1.00  0.00    -0.132 F 
ATOM     20  F   UNL     1      30.242   0.132  53.091  1.00  0.00    -0.132 F 
ATOM     21  F   UNL     1      29.111  -0.116  54.950  1.00  0.00    -0.132 F 
ENDBRANCH  17  18
ENDBRANCH  16  17
ENDBRANCH  10  11
ENDBRANCH   1  10
TORSDOF 8
ENDMDL
MODEL 6
REMARK VINA RESULT:    -5.523      4.409      6.126
REMARK INTER + INTRA:          -8.490
REMARK INTER:                  -7.769
REMARK INTRA:                  -0.721
REMARK UNBOUND:                -0.545
REMARK SMILES C[N+](C)(C)C[C@@H](O)COc1ccc(OC(F)(F)F)cn1
REMARK SMILES IDX 8 1 6 2 5 3 2 4 1 5 3 6 4 7 7 8 9 10 10 11 11 12 20 13 12 14
REMARK SMILES IDX 19 15 13 16 14 17 15 18 16 19 17 20 18 21
REMARK H PARENT 7 9
ROOT
ATOM      1  C   UNL     1      26.472   2.594  50.821  1.00  0.00    +0.269 C 
ENDROOT
BRANCH   1   2
ATOM      2  C   UNL     1      26.222   3.722  49.808  1.00  0.00    +0.206 C 
BRANCH   2   3
ATOM      3  C   UNL     1      25.274   4.778  50.428  1.00  0.00    +0.299 C 
BRANCH   3   4
ATOM      4  N   UNL     1      24.020   5.129  49.573  1.00  0.00    -0.329 N 
ATOM      5  C   UNL     1      24.358   6.128  48.480  1.00  0.00    +0.334 C 
ATOM      6  C   UNL     1      22.887   5.678  50.437  1.00  0.00    +0.334 C 
ATOM      7  C   UNL     1      23.535   3.834  48.919  1.00  0.00    +0.334 C 
ENDBRANCH   3   4
ENDBRANCH   2   3
BRANCH   2   8
ATOM      8  O   UNL     1      27.465   4.331  49.444  1.00  0.00    -0.384 OA
ATOM      9  H   UNL     1      28.143   4.047  50.089  1.00  0.00    +0.211 HD
ENDBRANCH   2   8
ENDBRANCH   1   2
BRANCH   1  10
ATOM     10  O   UNL     1      25.700   2.852  51.995  1.00  0.00    -0.475 OA
BRANCH  10  11
ATOM     11  C   UNL     1      24.918   1.773  52.363  1.00  0.00    +0.213 A 
ATOM     12  C   UNL     1      23.616   1.760  51.898  1.00  0.00    +0.072 A 
ATOM     13  N   UNL     1      25.439   0.815  53.154  1.00  0.00    -0.218 NA
ATOM     14  C   UNL     1      22.799   0.690  52.260  1.00  0.00    +0.054 A 
ATOM     15  C   UNL     1      24.620  -0.214  53.490  1.00  0.00    +0.161 A 
ATOM     16  C   UNL     1      23.298  -0.327  53.073  1.00  0.00    +0.148 A 
BRANCH  16  17
ATOM     17  O   UNL     1      22.415  -1.322  53.365  1.00  0.00    -0.404 OA
BRANCH  17  18
ATOM     18  C   UNL     1      21.889  -1.358  54.683  1.00  0.00    +0.573 C 
ATOM     19  F   UNL     1      22.752  -1.969  55.522  1.00  0.00    -0.132 F 
ATOM     20  F   UNL     1      21.693  -0.095  55.111  1.00  0.00    -0.132 F 
ATOM     21  F   UNL     1      20.707  -2.009  54.706  1.00  0.00    -0.132 F 
ENDBRANCH  17  18
ENDBRANCH  16  17
ENDBRANCH  10  11
ENDBRANCH   1  10
TORSDOF 8
ENDMDL
MODEL 7
REMARK VINA RESULT:    -5.456      1.731      2.530
REMARK INTER + INTRA:          -8.393
REMARK INTER:                  -7.606
REMARK INTRA:                  -0.788
REMARK UNBOUND:                -0.545
REMARK SMILES C[N+](C)(C)C[C@@H](O)COc1ccc(OC(F)(F)F)cn1
REMARK SMILES IDX 8 1 6 2 5 3 2 4 1 5 3 6 4 7 7 8 9 10 10 11 11 12 20 13 12 14
REMARK SMILES IDX 19 15 13 16 14 17 15 18 16 19 17 20 18 21
REMARK H PARENT 7 9
ROOT
ATOM      1  C   UNL     1      23.687   3.144  51.733  1.00  0.00    +0.269 C 
ENDROOT
BRANCH   1   2
ATOM      2  C   UNL     1      22.284   2.818  51.197  1.00  0.00    +0.206 C 
BRANCH   2   3
ATOM      3  C   UNL     1      21.330   2.523  52.381  1.00  0.00    +0.299 C 
BRANCH   3   4
ATOM      4  N   UNL     1      20.709   1.094  52.393  1.00  0.00    -0.329 N 
ATOM      5  C   UNL     1      19.239   1.127  52.011  1.00  0.00    +0.334 C 
ATOM      6  C   UNL     1      20.869   0.424  53.756  1.00  0.00    +0.334 C 
ATOM      7  C   UNL     1      21.464   0.258  51.360  1.00  0.00    +0.334 C 
ENDBRANCH   3   4
ENDBRANCH   2   3
BRANCH   2   8
ATOM      8  O   UNL     1      21.789   3.921  50.432  1.00  0.00    -0.384 OA
ATOM      9  H   UNL     1      22.181   4.742  50.791  1.00  0.00    +0.211 HD
ENDBRANCH   2   8
ENDBRANCH   1   2
BRANCH   1  10
ATOM     10  O   UNL     1      23.893   2.423  52.949  1.00  0.00    -0.475 OA
BRANCH  10  11
ATOM     11  C   UNL     1      25.013   1.614  52.902  1.00  0.00    +0.213 A 
ATOM     12  C   UNL     1      24.826   0.274  53.187  1.00  0.00    +0.072 A 
ATOM     13  N   UNL     1      26.210   2.155  52.606  1.00  0.00    -0.218 NA
ATOM     14  C   UNL     1      25.938  -0.566  53.157  1.00  0.00    +0.054 A 
ATOM     15  C   UNL     1      27.274   1.313  52.585  1.00  0.00    +0.161 A 
ATOM     16  C   UNL     1      27.196  -0.050  52.851  1.00  0.00    +0.148 A 
BRANCH  16  17
ATOM     17  O   UNL     1      28.211  -0.959  52.851  1.00  0.00    -0.404 OA
BRANCH  17  18
ATOM     18  C   UNL     1      29.278  -0.740  53.761  1.00  0.00    +0.573 C 
ATOM     19  F   UNL     1      28.805  -0.333  54.958  1.00  0.00    -0.132 F 
ATOM     20  F   UNL     1      29.950  -1.896  53.935  1.00  0.00    -0.132 F 
ATOM     21  F   UNL     1      30.132   0.187  53.280  1.00  0.00    -0.132 F 
ENDBRANCH  17  18
ENDBRANCH  16  17
ENDBRANCH  10  11
ENDBRANCH   1  10
TORSDOF 8
ENDMDL
MODEL 8
REMARK VINA RESULT:    -5.404      2.801      3.735
REMARK INTER + INTRA:          -8.318
REMARK INTER:                  -7.573
REMARK INTRA:                  -0.745
REMARK UNBOUND:                -0.545
REMARK SMILES C[N+](C)(C)C[C@@H](O)COc1ccc(OC(F)(F)F)cn1
REMARK SMILES IDX 8 1 6 2 5 3 2 4 1 5 3 6 4 7 7 8 9 10 10 11 11 12 20 13 12 14
REMARK SMILES IDX 19 15 13 16 14 17 15 18 16 19 17 20 18 21
REMARK H PARENT 7 9
ROOT
ATOM      1  C   UNL     1      22.780   1.356  51.383  1.00  0.00    +0.269 C 
ENDROOT
BRANCH   1   2
ATOM      2  C   UNL     1      22.532   2.733  50.747  1.00  0.00    +0.206 C 
BRANCH   2   3
ATOM      3  C   UNL     1      23.547   2.967  49.600  1.00  0.00    +0.299 C 
BRANCH   3   4
ATOM      4  N   UNL     1      24.383   4.277  49.710  1.00  0.00    -0.329 N 
ATOM      5  C   UNL     1      23.940   5.304  48.682  1.00  0.00    +0.334 C 
ATOM      6  C   UNL     1      25.877   4.004  49.551  1.00  0.00    +0.334 C 
ATOM      7  C   UNL     1      24.151   4.852  51.108  1.00  0.00    +0.334 C 
ENDBRANCH   3   4
ENDBRANCH   2   3
BRANCH   2   8
ATOM      8  O   UNL     1      21.195   2.798  50.240  1.00  0.00    -0.384 OA
ATOM      9  H   UNL     1      20.905   1.890  50.027  1.00  0.00    +0.211 HD
ENDBRANCH   2   8
ENDBRANCH   1   2
BRANCH   1  10
ATOM     10  O   UNL     1      23.432   1.543  52.640  1.00  0.00    -0.475 OA
BRANCH  10  11
ATOM     11  C   UNL     1      24.661   0.912  52.699  1.00  0.00    +0.213 A 
ATOM     12  C   UNL     1      24.728  -0.253  53.440  1.00  0.00    +0.072 A 
ATOM     13  N   UNL     1      25.717   1.456  52.063  1.00  0.00    -0.218 NA
ATOM     14  C   UNL     1      25.956  -0.908  53.527  1.00  0.00    +0.054 A 
ATOM     15  C   UNL     1      26.899   0.796  52.166  1.00  0.00    +0.161 A 
ATOM     16  C   UNL     1      27.075  -0.384  52.881  1.00  0.00    +0.148 A 
BRANCH  16  17
ATOM     17  O   UNL     1      28.222  -1.103  53.032  1.00  0.00    -0.404 OA
BRANCH  17  18
ATOM     18  C   UNL     1      29.235  -0.544  53.854  1.00  0.00    +0.573 C 
ATOM     19  F   UNL     1      30.239  -1.427  54.035  1.00  0.00    -0.132 F 
ATOM     20  F   UNL     1      29.732   0.555  53.252  1.00  0.00    -0.132 F 
ATOM     21  F   UNL     1      28.731  -0.187  55.054  1.00  0.00    -0.132 F 
ENDBRANCH  17  18
ENDBRANCH  16  17
ENDBRANCH  10  11
ENDBRANCH   1  10
TORSDOF 8
ENDMDL
MODEL 9
REMARK VINA RESULT:    -5.365      4.717      6.030
REMARK INTER + INTRA:          -8.262
REMARK INTER:                  -7.679
REMARK INTRA:                  -0.583
REMARK UNBOUND:                -0.545
REMARK SMILES C[N+](C)(C)C[C@@H](O)COc1ccc(OC(F)(F)F)cn1
REMARK SMILES IDX 8 1 6 2 5 3 2 4 1 5 3 6 4 7 7 8 9 10 10 11 11 12 20 13 12 14
REMARK SMILES IDX 19 15 13 16 14 17 15 18 16 19 17 20 18 21
REMARK H PARENT 7 9
ROOT
ATOM      1  C   UNL     1      23.523   4.663  52.445  1.00  0.00    +0.269 C 
ENDROOT
BRANCH   1   2
ATOM      2  C   UNL     1      23.837   5.781  51.438  1.00  0.00    +0.206 C 
BRANCH   2   3
ATOM      3  C   UNL     1      22.546   6.175  50.679  1.00  0.00    +0.299 C 
BRANCH   3   4
ATOM      4  N   UNL     1      22.644   6.112  49.126  1.00  0.00    -0.329 N 
ATOM      5  C   UNL     1      23.455   7.272  48.575  1.00  0.00    +0.334 C 
ATOM      6  C   UNL     1      21.262   6.097  48.476  1.00  0.00    +0.334 C 
ATOM      7  C   UNL     1      23.353   4.805  48.765  1.00  0.00    +0.334 C 
ENDBRANCH   3   4
ENDBRANCH   2   3
BRANCH   2   8
ATOM      8  O   UNL     1      24.368   6.917  52.127  1.00  0.00    -0.384 OA
ATOM      9  H   UNL     1      23.722   7.191  52.808  1.00  0.00    +0.211 HD
ENDBRANCH   2   8
ENDBRANCH   1   2
BRANCH   1  10
ATOM     10  O   UNL     1      24.491   3.623  52.293  1.00  0.00    -0.475 OA
BRANCH  10  11
ATOM     11  C   UNL     1      23.968   2.370  52.555  1.00  0.00    +0.213 A 
ATOM     12  C   UNL     1      22.631   2.179  52.261  1.00  0.00    +0.072 A 
ATOM     13  N   UNL     1      24.760   1.419  53.088  1.00  0.00    -0.218 NA
ATOM     14  C   UNL     1      22.072   0.929  52.523  1.00  0.00    +0.054 A 
ATOM     15  C   UNL     1      24.188   0.213  53.332  1.00  0.00    +0.161 A 
ATOM     16  C   UNL     1      22.855  -0.086  53.070  1.00  0.00    +0.148 A 
BRANCH  16  17
ATOM     17  O   UNL     1      22.209  -1.266  53.285  1.00  0.00    -0.404 OA
BRANCH  17  18
ATOM     18  C   UNL     1      21.644  -1.472  54.571  1.00  0.00    +0.573 C 
ATOM     19  F   UNL     1      20.417  -2.023  54.467  1.00  0.00    -0.132 F 
ATOM     20  F   UNL     1      22.436  -2.311  55.268  1.00  0.00    -0.132 F 
ATOM     21  F   UNL     1      21.555  -0.305  55.244  1.00  0.00    -0.132 F 
ENDBRANCH  17  18
ENDBRANCH  16  17
ENDBRANCH  10  11
ENDBRANCH   1  10
TORSDOF 8
ENDMDL
