MODEL 1
REMARK VINA RESULT:    -8.275      0.000      0.000
REMARK INTER + INTRA:         -11.364
REMARK INTER:                 -10.936
REMARK INTRA:                  -0.428
REMARK UNBOUND:                -0.428
REMARK SMILES O=C(O)c1cc(O)c(O)c(N2CCN(Cc3cccc(Br)c3)CC2)c1
REMARK SMILES IDX 4 1 5 2 6 3 8 4 10 5 25 6 2 7 1 8 3 9 7 11 11 13 12 14 24 15
REMARK SMILES IDX 13 16 23 17 14 18 15 19 16 20 17 21 22 22 18 23 20 24 19 25
REMARK SMILES IDX 21 26 9 27
REMARK H PARENT 3 10 7 12 9 28
ROOT
ATOM      1  C   UNL     1      28.438  -0.889  53.522  1.00  0.00    +0.065 A 
ATOM      2  C   UNL     1      29.115   0.278  53.877  1.00  0.00    +0.066 A 
ATOM      3  C   UNL     1      28.391   1.453  53.979  1.00  0.00    +0.160 A 
ATOM      4  C   UNL     1      27.009   1.480  53.733  1.00  0.00    +0.181 A 
ATOM      5  C   UNL     1      26.288   0.322  53.378  1.00  0.00    +0.084 A 
ATOM      6  C   UNL     1      27.051  -0.859  53.277  1.00  0.00    +0.045 A 
ENDROOT
BRANCH   1   7
ATOM      7  C   UNL     1      29.139  -2.189  53.392  1.00  0.00    +0.335 C 
ATOM      8  O   UNL     1      30.270  -2.434  53.769  1.00  0.00    -0.246 OA
BRANCH   7   9
ATOM      9  O   UNL     1      28.387  -3.128  52.791  1.00  0.00    -0.478 OA
ATOM     10  H   UNL     1      28.555  -3.934  53.326  1.00  0.00    +0.297 HD
ENDBRANCH   7   9
ENDBRANCH   1   7
BRANCH   3  11
ATOM     11  O   UNL     1      28.995   2.639  54.312  1.00  0.00    -0.504 OA
ATOM     12  H   UNL     1      29.796   2.442  54.829  1.00  0.00    +0.293 HD
ENDBRANCH   3  11
BRANCH   5  13
ATOM     13  N   UNL     1      24.922   0.302  53.132  1.00  0.00    -0.366 N 
ATOM     14  C   UNL     1      24.314   1.042  52.017  1.00  0.00    +0.132 C 
ATOM     15  C   UNL     1      24.013  -0.535  53.935  1.00  0.00    +0.132 C 
ATOM     16  C   UNL     1      22.840   1.382  52.338  1.00  0.00    +0.106 C 
ATOM     17  C   UNL     1      22.752  -0.923  53.125  1.00  0.00    +0.106 C 
ATOM     18  N   UNL     1      21.973   0.203  52.559  1.00  0.00    -0.296 NA
BRANCH  18  19
ATOM     19  C   UNL     1      20.825   0.575  53.400  1.00  0.00    +0.120 C 
BRANCH  19  20
ATOM     20  C   UNL     1      19.549  -0.153  53.028  1.00  0.00    -0.033 A 
ATOM     21  C   UNL     1      19.090  -1.233  53.799  1.00  0.00    +0.005 A 
ATOM     22  C   UNL     1      18.824   0.219  51.887  1.00  0.00    +0.020 A 
ATOM     23  C   UNL     1      17.925  -1.917  53.447  1.00  0.00    +0.001 A 
ATOM     24  C   UNL     1      17.660  -0.468  51.541  1.00  0.00    +0.018 A 
ATOM     25  C   UNL     1      17.206  -1.534  52.316  1.00  0.00    +0.016 A 
ATOM     26 Br   UNL     1      16.689   0.050  50.004  1.00  0.00    -0.051 Br
ENDBRANCH  19  20
ENDBRANCH  18  19
ENDBRANCH   5  13
BRANCH   4  27
ATOM     27  O   UNL     1      26.399   2.711  53.823  1.00  0.00    -0.503 OA
ATOM     28  H   UNL     1      26.690   3.189  53.021  1.00  0.00    +0.293 HD
ENDBRANCH   4  27
TORSDOF 7
ENDMDL
MODEL 2
REMARK VINA RESULT:    -7.699      1.076      1.897
REMARK INTER + INTRA:         -10.603
REMARK INTER:                 -10.232
REMARK INTRA:                  -0.371
REMARK UNBOUND:                -0.428
REMARK SMILES O=C(O)c1cc(O)c(O)c(N2CCN(Cc3cccc(Br)c3)CC2)c1
REMARK SMILES IDX 4 1 5 2 6 3 8 4 10 5 25 6 2 7 1 8 3 9 7 11 11 13 12 14 24 15
REMARK SMILES IDX 13 16 23 17 14 18 15 19 16 20 17 21 22 22 18 23 20 24 19 25
REMARK SMILES IDX 21 26 9 27
REMARK H PARENT 3 10 7 12 9 28
ROOT
ATOM      1  C   UNL     1      28.507  -0.942  53.570  1.00  0.00    +0.065 A 
ATOM      2  C   UNL     1      29.233   0.191  53.937  1.00  0.00    +0.066 A 
ATOM      3  C   UNL     1      28.563   1.397  54.041  1.00  0.00    +0.160 A 
ATOM      4  C   UNL     1      27.184   1.488  53.787  1.00  0.00    +0.181 A 
ATOM      5  C   UNL     1      26.415   0.366  53.419  1.00  0.00    +0.084 A 
ATOM      6  C   UNL     1      27.125  -0.847  53.316  1.00  0.00    +0.045 A 
ENDROOT
BRANCH   1   7
ATOM      7  C   UNL     1      29.150  -2.271  53.436  1.00  0.00    +0.335 C 
ATOM      8  O   UNL     1      30.263  -2.572  53.825  1.00  0.00    -0.246 OA
BRANCH   7   9
ATOM      9  O   UNL     1      28.364  -3.169  52.814  1.00  0.00    -0.478 OA
ATOM     10  H   UNL     1      28.956  -3.564  52.138  1.00  0.00    +0.297 HD
ENDBRANCH   7   9
ENDBRANCH   1   7
BRANCH   3  11
ATOM     11  O   UNL     1      29.218   2.552  54.385  1.00  0.00    -0.504 OA
ATOM     12  H   UNL     1      30.174   2.404  54.290  1.00  0.00    +0.293 HD
ENDBRANCH   3  11
BRANCH   5  13
ATOM     13  N   UNL     1      25.051   0.409  53.165  1.00  0.00    -0.366 N 
ATOM     14  C   UNL     1      24.071  -0.280  54.017  1.00  0.00    +0.132 C 
ATOM     15  C   UNL     1      24.504   1.222  52.065  1.00  0.00    +0.132 C 
ATOM     16  C   UNL     1      22.798  -0.619  53.207  1.00  0.00    +0.106 C 
ATOM     17  C   UNL     1      23.047   1.654  52.362  1.00  0.00    +0.106 C 
ATOM     18  N   UNL     1      22.093   0.559  52.654  1.00  0.00    -0.296 NA
BRANCH  18  19
ATOM     19  C   UNL     1      21.307   0.165  51.474  1.00  0.00    +0.120 C 
BRANCH  19  20
ATOM     20  C   UNL     1      19.872   0.651  51.520  1.00  0.00    -0.033 A 
ATOM     21  C   UNL     1      19.568   2.005  51.314  1.00  0.00    +0.005 A 
ATOM     22  C   UNL     1      18.828  -0.241  51.803  1.00  0.00    +0.020 A 
ATOM     23  C   UNL     1      18.248   2.458  51.374  1.00  0.00    +0.001 A 
ATOM     24  C   UNL     1      17.512   0.217  51.862  1.00  0.00    +0.018 A 
ATOM     25  C   UNL     1      17.216   1.561  51.648  1.00  0.00    +0.016 A 
ATOM     26 Br   UNL     1      16.114  -1.000  52.238  1.00  0.00    -0.051 Br
ENDBRANCH  19  20
ENDBRANCH  18  19
ENDBRANCH   5  13
BRANCH   4  27
ATOM     27  O   UNL     1      26.631   2.745  53.881  1.00  0.00    -0.503 OA
ATOM     28  H   UNL     1      25.665   2.591  53.860  1.00  0.00    +0.293 HD
ENDBRANCH   4  27
TORSDOF 7
ENDMDL
MODEL 3
REMARK VINA RESULT:    -7.544      5.105      8.352
REMARK INTER + INTRA:         -10.398
REMARK INTER:                 -10.376
REMARK INTRA:                  -0.022
REMARK UNBOUND:                -0.428
REMARK SMILES O=C(O)c1cc(O)c(O)c(N2CCN(Cc3cccc(Br)c3)CC2)c1
REMARK SMILES IDX 4 1 5 2 6 3 8 4 10 5 25 6 2 7 1 8 3 9 7 11 11 13 12 14 24 15
REMARK SMILES IDX 13 16 23 17 14 18 15 19 16 20 17 21 22 22 18 23 20 24 19 25
REMARK SMILES IDX 21 26 9 27
REMARK H PARENT 3 10 7 12 9 28
ROOT
ATOM      1  C   UNL     1      20.782  -0.483  53.486  1.00  0.00    +0.065 A 
ATOM      2  C   UNL     1      21.263  -1.290  54.517  1.00  0.00    +0.066 A 
ATOM      3  C   UNL     1      22.605  -1.209  54.844  1.00  0.00    +0.160 A 
ATOM      4  C   UNL     1      23.469  -0.338  54.160  1.00  0.00    +0.181 A 
ATOM      5  C   UNL     1      23.020   0.496  53.117  1.00  0.00    +0.084 A 
ATOM      6  C   UNL     1      21.651   0.389  52.802  1.00  0.00    +0.045 A 
ENDROOT
BRANCH   1   7
ATOM      7  C   UNL     1      19.357  -0.510  53.074  1.00  0.00    +0.335 C 
ATOM      8  O   UNL     1      18.884   0.034  52.094  1.00  0.00    -0.246 OA
BRANCH   7   9
ATOM      9  O   UNL     1      18.586  -1.221  53.916  1.00  0.00    -0.478 OA
ATOM     10  H   UNL     1      18.990  -1.053  54.795  1.00  0.00    +0.297 HD
ENDBRANCH   7   9
ENDBRANCH   1   7
BRANCH   3  11
ATOM     11  O   UNL     1      23.147  -1.982  55.839  1.00  0.00    -0.504 OA
ATOM     12  H   UNL     1      23.438  -1.396  56.560  1.00  0.00    +0.293 HD
ENDBRANCH   3  11
BRANCH   5  13
ATOM     13  N   UNL     1      23.838   1.375  52.419  1.00  0.00    -0.366 N 
ATOM     14  C   UNL     1      23.467   2.779  52.190  1.00  0.00    +0.132 C 
ATOM     15  C   UNL     1      25.168   0.963  51.938  1.00  0.00    +0.132 C 
ATOM     16  C   UNL     1      24.159   3.317  50.917  1.00  0.00    +0.106 C 
ATOM     17  C   UNL     1      26.119   2.180  51.817  1.00  0.00    +0.106 C 
ATOM     18  N   UNL     1      25.639   3.295  50.967  1.00  0.00    -0.296 NA
BRANCH  18  19
ATOM     19  C   UNL     1      26.187   3.243  49.604  1.00  0.00    +0.120 C 
BRANCH  19  20
ATOM     20  C   UNL     1      26.655   4.592  49.094  1.00  0.00    -0.033 A 
ATOM     21  C   UNL     1      27.982   4.777  48.675  1.00  0.00    +0.005 A 
ATOM     22  C   UNL     1      25.778   5.685  49.066  1.00  0.00    +0.020 A 
ATOM     23  C   UNL     1      28.419   6.024  48.222  1.00  0.00    +0.001 A 
ATOM     24  C   UNL     1      26.221   6.928  48.614  1.00  0.00    +0.018 A 
ATOM     25  C   UNL     1      27.537   7.103  48.191  1.00  0.00    +0.016 A 
ATOM     26 Br   UNL     1      25.025   8.392  48.575  1.00  0.00    -0.051 Br
ENDBRANCH  19  20
ENDBRANCH  18  19
ENDBRANCH   5  13
BRANCH   4  27
ATOM     27  O   UNL     1      24.791  -0.371  54.542  1.00  0.00    -0.503 OA
ATOM     28  H   UNL     1      25.217   0.335  54.016  1.00  0.00    +0.293 HD
ENDBRANCH   4  27
TORSDOF 7
ENDMDL
MODEL 4
REMARK VINA RESULT:    -7.485      4.826      9.175
REMARK INTER + INTRA:         -10.319
REMARK INTER:                  -9.991
REMARK INTRA:                  -0.329
REMARK UNBOUND:                -0.428
REMARK SMILES O=C(O)c1cc(O)c(O)c(N2CCN(Cc3cccc(Br)c3)CC2)c1
REMARK SMILES IDX 4 1 5 2 6 3 8 4 10 5 25 6 2 7 1 8 3 9 7 11 11 13 12 14 24 15
REMARK SMILES IDX 13 16 23 17 14 18 15 19 16 20 17 21 22 22 18 23 20 24 19 25
REMARK SMILES IDX 21 26 9 27
REMARK H PARENT 3 10 7 12 9 28
ROOT
ATOM      1  C   UNL     1      17.826  -0.025  51.067  1.00  0.00    +0.065 A 
ATOM      2  C   UNL     1      17.245  -0.830  52.048  1.00  0.00    +0.066 A 
ATOM      3  C   UNL     1      18.010  -1.184  53.145  1.00  0.00    +0.160 A 
ATOM      4  C   UNL     1      19.338  -0.747  53.278  1.00  0.00    +0.181 A 
ATOM      5  C   UNL     1      19.958   0.071  52.312  1.00  0.00    +0.084 A 
ATOM      6  C   UNL     1      19.158   0.411  51.204  1.00  0.00    +0.045 A 
ENDROOT
BRANCH   1   7
ATOM      7  C   UNL     1      17.074   0.398  49.861  1.00  0.00    +0.335 C 
ATOM      8  O   UNL     1      16.776   1.540  49.565  1.00  0.00    -0.246 OA
BRANCH   7   9
ATOM      9  O   UNL     1      16.728  -0.637  49.074  1.00  0.00    -0.478 OA
ATOM     10  H   UNL     1      15.816  -0.851  49.364  1.00  0.00    +0.297 HD
ENDBRANCH   7   9
ENDBRANCH   1   7
BRANCH   3  11
ATOM     11  O   UNL     1      17.507  -1.983  54.141  1.00  0.00    -0.504 OA
ATOM     12  H   UNL     1      18.247  -2.449  54.566  1.00  0.00    +0.293 HD
ENDBRANCH   3  11
BRANCH   5  13
ATOM     13  N   UNL     1      21.264   0.530  52.406  1.00  0.00    -0.366 N 
ATOM     14  C   UNL     1      21.589   1.959  52.521  1.00  0.00    +0.132 C 
ATOM     15  C   UNL     1      22.400  -0.406  52.477  1.00  0.00    +0.132 C 
ATOM     16  C   UNL     1      23.006   2.235  51.969  1.00  0.00    +0.106 C 
ATOM     17  C   UNL     1      23.601   0.230  53.221  1.00  0.00    +0.106 C 
ATOM     18  N   UNL     1      24.090   1.518  52.678  1.00  0.00    -0.296 NA
BRANCH  18  19
ATOM     19  C   UNL     1      25.249   1.353  51.788  1.00  0.00    +0.120 C 
BRANCH  19  20
ATOM     20  C   UNL     1      26.535   1.042  52.528  1.00  0.00    -0.033 A 
ATOM     21  C   UNL     1      27.245   2.058  53.186  1.00  0.00    +0.005 A 
ATOM     22  C   UNL     1      27.052  -0.262  52.537  1.00  0.00    +0.020 A 
ATOM     23  C   UNL     1      28.440   1.776  53.852  1.00  0.00    +0.001 A 
ATOM     24  C   UNL     1      28.246  -0.536  53.204  1.00  0.00    +0.018 A 
ATOM     25  C   UNL     1      28.942   0.476  53.863  1.00  0.00    +0.016 A 
ATOM     26 Br   UNL     1      28.928  -2.300  53.215  1.00  0.00    -0.051 Br
ENDBRANCH  19  20
ENDBRANCH  18  19
ENDBRANCH   5  13
BRANCH   4  27
ATOM     27  O   UNL     1      20.017  -1.194  54.390  1.00  0.00    -0.503 OA
ATOM     28  H   UNL     1      19.356  -1.715  54.888  1.00  0.00    +0.293 HD
ENDBRANCH   4  27
TORSDOF 7
ENDMDL
MODEL 5
REMARK VINA RESULT:    -7.034      5.387      8.522
REMARK INTER + INTRA:          -9.724
REMARK INTER:                  -9.460
REMARK INTRA:                  -0.264
REMARK UNBOUND:                -0.428
REMARK SMILES O=C(O)c1cc(O)c(O)c(N2CCN(Cc3cccc(Br)c3)CC2)c1
REMARK SMILES IDX 4 1 5 2 6 3 8 4 10 5 25 6 2 7 1 8 3 9 7 11 11 13 12 14 24 15
REMARK SMILES IDX 13 16 23 17 14 18 15 19 16 20 17 21 22 22 18 23 20 24 19 25
REMARK SMILES IDX 21 26 9 27
REMARK H PARENT 3 10 7 12 9 28
ROOT
ATOM      1  C   UNL     1      19.765  -0.664  53.263  1.00  0.00    +0.065 A 
ATOM      2  C   UNL     1      20.390  -1.483  54.204  1.00  0.00    +0.066 A 
ATOM      3  C   UNL     1      21.741  -1.297  54.444  1.00  0.00    +0.160 A 
ATOM      4  C   UNL     1      22.471  -0.309  53.764  1.00  0.00    +0.181 A 
ATOM      5  C   UNL     1      21.875   0.541  52.811  1.00  0.00    +0.084 A 
ATOM      6  C   UNL     1      20.501   0.326  52.583  1.00  0.00    +0.045 A 
ENDROOT
BRANCH   1   7
ATOM      7  C   UNL     1      18.323  -0.798  52.948  1.00  0.00    +0.335 C 
ATOM      8  O   UNL     1      17.795  -0.545  51.881  1.00  0.00    -0.246 OA
BRANCH   7   9
ATOM      9  O   UNL     1      17.602  -1.247  53.991  1.00  0.00    -0.478 OA
ATOM     10  H   UNL     1      17.566  -0.475  54.596  1.00  0.00    +0.297 HD
ENDBRANCH   7   9
ENDBRANCH   1   7
BRANCH   3  11
ATOM     11  O   UNL     1      22.420  -2.074  55.347  1.00  0.00    -0.504 OA
ATOM     12  H   UNL     1      21.955  -2.924  55.433  1.00  0.00    +0.293 HD
ENDBRANCH   3  11
BRANCH   5  13
ATOM     13  N   UNL     1      22.558   1.532  52.120  1.00  0.00    -0.366 N 
ATOM     14  C   UNL     1      23.394   2.531  52.801  1.00  0.00    +0.132 C 
ATOM     15  C   UNL     1      22.545   1.585  50.647  1.00  0.00    +0.132 C 
ATOM     16  C   UNL     1      23.486   3.822  51.956  1.00  0.00    +0.106 C 
ATOM     17  C   UNL     1      23.821   2.274  50.103  1.00  0.00    +0.106 C 
ATOM     18  N   UNL     1      24.091   3.637  50.617  1.00  0.00    -0.296 NA
BRANCH  18  19
ATOM     19  C   UNL     1      23.621   4.689  49.704  1.00  0.00    +0.120 C 
BRANCH  19  20
ATOM     20  C   UNL     1      24.748   5.483  49.073  1.00  0.00    -0.033 A 
ATOM     21  C   UNL     1      26.081   5.063  49.206  1.00  0.00    +0.005 A 
ATOM     22  C   UNL     1      24.479   6.669  48.375  1.00  0.00    +0.020 A 
ATOM     23  C   UNL     1      27.122   5.804  48.642  1.00  0.00    +0.001 A 
ATOM     24  C   UNL     1      25.523   7.404  47.814  1.00  0.00    +0.018 A 
ATOM     25  C   UNL     1      26.843   6.977  47.943  1.00  0.00    +0.016 A 
ATOM     26 Br   UNL     1      25.144   8.998  46.869  1.00  0.00    -0.051 Br
ENDBRANCH  19  20
ENDBRANCH  18  19
ENDBRANCH   5  13
BRANCH   4  27
ATOM     27  O   UNL     1      23.816  -0.242  54.052  1.00  0.00    -0.503 OA
ATOM     28  H   UNL     1      24.077  -1.168  54.226  1.00  0.00    +0.293 HD
ENDBRANCH   4  27
TORSDOF 7
ENDMDL
MODEL 6
REMARK VINA RESULT:    -7.006      5.613      8.353
REMARK INTER + INTRA:          -9.687
REMARK INTER:                  -9.251
REMARK INTRA:                  -0.435
REMARK UNBOUND:                -0.428
REMARK SMILES O=C(O)c1cc(O)c(O)c(N2CCN(Cc3cccc(Br)c3)CC2)c1
REMARK SMILES IDX 4 1 5 2 6 3 8 4 10 5 25 6 2 7 1 8 3 9 7 11 11 13 12 14 24 15
REMARK SMILES IDX 13 16 23 17 14 18 15 19 16 20 17 21 22 22 18 23 20 24 19 25
REMARK SMILES IDX 21 26 9 27
REMARK H PARENT 3 10 7 12 9 28
ROOT
ATOM      1  C   UNL     1      22.922  -0.533  54.318  1.00  0.00    +0.065 A 
ATOM      2  C   UNL     1      21.569  -0.846  54.184  1.00  0.00    +0.066 A 
ATOM      3  C   UNL     1      20.800  -0.083  53.322  1.00  0.00    +0.160 A 
ATOM      4  C   UNL     1      21.360   0.979  52.595  1.00  0.00    +0.181 A 
ATOM      5  C   UNL     1      22.723   1.322  52.699  1.00  0.00    +0.084 A 
ATOM      6  C   UNL     1      23.480   0.533  53.587  1.00  0.00    +0.045 A 
ENDROOT
BRANCH   1   7
ATOM      7  C   UNL     1      23.814  -1.300  55.221  1.00  0.00    +0.335 C 
ATOM      8  O   UNL     1      25.031  -1.292  55.204  1.00  0.00    -0.246 OA
BRANCH   7   9
ATOM      9  O   UNL     1      23.136  -2.048  56.110  1.00  0.00    -0.478 OA
ATOM     10  H   UNL     1      22.510  -1.411  56.517  1.00  0.00    +0.297 HD
ENDBRANCH   7   9
ENDBRANCH   1   7
BRANCH   3  11
ATOM     11  O   UNL     1      19.462  -0.329  53.152  1.00  0.00    -0.504 OA
ATOM     12  H   UNL     1      19.188  -1.004  53.797  1.00  0.00    +0.293 HD
ENDBRANCH   3  11
BRANCH   5  13
ATOM     13  N   UNL     1      23.318   2.360  51.995  1.00  0.00    -0.366 N 
ATOM     14  C   UNL     1      23.251   3.757  52.448  1.00  0.00    +0.132 C 
ATOM     15  C   UNL     1      24.125   2.103  50.789  1.00  0.00    +0.132 C 
ATOM     16  C   UNL     1      23.389   4.720  51.246  1.00  0.00    +0.106 C 
ATOM     17  C   UNL     1      25.185   3.212  50.579  1.00  0.00    +0.106 C 
ATOM     18  N   UNL     1      24.665   4.598  50.507  1.00  0.00    -0.296 NA
BRANCH  18  19
ATOM     19  C   UNL     1      24.491   5.065  49.123  1.00  0.00    +0.120 C 
BRANCH  19  20
ATOM     20  C   UNL     1      25.612   5.968  48.649  1.00  0.00    -0.033 A 
ATOM     21  C   UNL     1      25.336   7.254  48.159  1.00  0.00    +0.005 A 
ATOM     22  C   UNL     1      26.940   5.518  48.660  1.00  0.00    +0.020 A 
ATOM     23  C   UNL     1      26.366   8.080  47.703  1.00  0.00    +0.001 A 
ATOM     24  C   UNL     1      27.964   6.348  48.204  1.00  0.00    +0.018 A 
ATOM     25  C   UNL     1      27.684   7.627  47.726  1.00  0.00    +0.016 A 
ATOM     26 Br   UNL     1      29.752   5.732  48.232  1.00  0.00    -0.051 Br
ENDBRANCH  19  20
ENDBRANCH  18  19
ENDBRANCH   5  13
BRANCH   4  27
ATOM     27  O   UNL     1      20.493   1.694  51.799  1.00  0.00    -0.503 OA
ATOM     28  H   UNL     1      19.914   2.167  52.429  1.00  0.00    +0.293 HD
ENDBRANCH   4  27
TORSDOF 7
ENDMDL
MODEL 7
REMARK VINA RESULT:    -6.762      1.831      2.585
REMARK INTER + INTRA:          -9.364
REMARK INTER:                  -9.421
REMARK INTRA:                   0.056
REMARK UNBOUND:                -0.428
REMARK SMILES O=C(O)c1cc(O)c(O)c(N2CCN(Cc3cccc(Br)c3)CC2)c1
REMARK SMILES IDX 4 1 5 2 6 3 8 4 10 5 25 6 2 7 1 8 3 9 7 11 11 13 12 14 24 15
REMARK SMILES IDX 13 16 23 17 14 18 15 19 16 20 17 21 22 22 18 23 20 24 19 25
REMARK SMILES IDX 21 26 9 27
REMARK H PARENT 3 10 7 12 9 28
ROOT
ATOM      1  C   UNL     1      26.949   0.946  53.813  1.00  0.00    +0.065 A 
ATOM      2  C   UNL     1      27.546   1.818  52.901  1.00  0.00    +0.066 A 
ATOM      3  C   UNL     1      26.750   2.399  51.930  1.00  0.00    +0.160 A 
ATOM      4  C   UNL     1      25.375   2.126  51.856  1.00  0.00    +0.181 A 
ATOM      5  C   UNL     1      24.734   1.255  52.761  1.00  0.00    +0.084 A 
ATOM      6  C   UNL     1      25.569   0.674  53.736  1.00  0.00    +0.045 A 
ENDROOT
BRANCH   1   7
ATOM      7  C   UNL     1      27.731   0.282  54.883  1.00  0.00    +0.335 C 
ATOM      8  O   UNL     1      27.333   0.015  56.002  1.00  0.00    -0.246 OA
BRANCH   7   9
ATOM      9  O   UNL     1      28.985  -0.020  54.501  1.00  0.00    -0.478 OA
ATOM     10  H   UNL     1      28.902  -0.163  53.533  1.00  0.00    +0.297 HD
ENDBRANCH   7   9
ENDBRANCH   1   7
BRANCH   3  11
ATOM     11  O   UNL     1      27.273   3.257  50.996  1.00  0.00    -0.504 OA
ATOM     12  H   UNL     1      28.213   3.400  51.202  1.00  0.00    +0.293 HD
ENDBRANCH   3  11
BRANCH   5  13
ATOM     13  N   UNL     1      23.378   0.961  52.728  1.00  0.00    -0.366 N 
ATOM     14  C   UNL     1      22.850  -0.354  53.118  1.00  0.00    +0.132 C 
ATOM     15  C   UNL     1      22.382   1.987  52.375  1.00  0.00    +0.132 C 
ATOM     16  C   UNL     1      21.505  -0.626  52.406  1.00  0.00    +0.106 C 
ATOM     17  C   UNL     1      21.009   1.679  53.024  1.00  0.00    +0.106 C 
ATOM     18  N   UNL     1      20.435   0.347  52.722  1.00  0.00    -0.296 NA
BRANCH  18  19
ATOM     19  C   UNL     1      19.454   0.389  51.628  1.00  0.00    +0.120 C 
BRANCH  19  20
ATOM     20  C   UNL     1      18.211  -0.432  51.905  1.00  0.00    -0.033 A 
ATOM     21  C   UNL     1      18.175  -1.336  52.978  1.00  0.00    +0.005 A 
ATOM     22  C   UNL     1      17.088  -0.325  51.072  1.00  0.00    +0.020 A 
ATOM     23  C   UNL     1      17.036  -2.107  53.223  1.00  0.00    +0.001 A 
ATOM     24  C   UNL     1      15.954  -1.098  51.322  1.00  0.00    +0.018 A 
ATOM     25  C   UNL     1      15.922  -1.988  52.394  1.00  0.00    +0.016 A 
ATOM     26 Br   UNL     1      14.444  -0.938  50.195  1.00  0.00    -0.051 Br
ENDBRANCH  19  20
ENDBRANCH  18  19
ENDBRANCH   5  13
BRANCH   4  27
ATOM     27  O   UNL     1      24.690   2.728  50.825  1.00  0.00    -0.503 OA
ATOM     28  H   UNL     1      23.748   2.648  51.075  1.00  0.00    +0.293 HD
ENDBRANCH   4  27
TORSDOF 7
ENDMDL
MODEL 8
REMARK VINA RESULT:    -6.712      5.337      7.389
REMARK INTER + INTRA:          -9.298
REMARK INTER:                  -8.739
REMARK INTRA:                  -0.560
REMARK UNBOUND:                -0.428
REMARK SMILES O=C(O)c1cc(O)c(O)c(N2CCN(Cc3cccc(Br)c3)CC2)c1
REMARK SMILES IDX 4 1 5 2 6 3 8 4 10 5 25 6 2 7 1 8 3 9 7 11 11 13 12 14 24 15
REMARK SMILES IDX 13 16 23 17 14 18 15 19 16 20 17 21 22 22 18 23 20 24 19 25
REMARK SMILES IDX 21 26 9 27
REMARK H PARENT 3 10 7 12 9 28
ROOT
ATOM      1  C   UNL     1      23.735  -0.522  54.204  1.00  0.00    +0.065 A 
ATOM      2  C   UNL     1      22.508  -1.075  54.571  1.00  0.00    +0.066 A 
ATOM      3  C   UNL     1      21.359  -0.578  53.979  1.00  0.00    +0.160 A 
ATOM      4  C   UNL     1      21.419   0.456  53.031  1.00  0.00    +0.181 A 
ATOM      5  C   UNL     1      22.638   1.037  52.631  1.00  0.00    +0.084 A 
ATOM      6  C   UNL     1      23.790   0.515  53.253  1.00  0.00    +0.045 A 
ENDROOT
BRANCH   1   7
ATOM      7  C   UNL     1      25.011  -0.997  54.791  1.00  0.00    +0.335 C 
ATOM      8  O   UNL     1      26.117  -0.878  54.296  1.00  0.00    -0.246 OA
BRANCH   7   9
ATOM      9  O   UNL     1      24.843  -1.604  55.980  1.00  0.00    -0.478 OA
ATOM     10  H   UNL     1      25.645  -1.350  56.484  1.00  0.00    +0.297 HD
ENDBRANCH   7   9
ENDBRANCH   1   7
BRANCH   3  11
ATOM     11  O   UNL     1      20.119  -1.068  54.302  1.00  0.00    -0.504 OA
ATOM     12  H   UNL     1      19.453  -0.588  53.780  1.00  0.00    +0.293 HD
ENDBRANCH   3  11
BRANCH   5  13
ATOM     13  N   UNL     1      22.743   2.056  51.695  1.00  0.00    -0.366 N 
ATOM     14  C   UNL     1      22.866   3.469  52.081  1.00  0.00    +0.132 C 
ATOM     15  C   UNL     1      22.818   1.764  50.252  1.00  0.00    +0.132 C 
ATOM     16  C   UNL     1      22.325   4.384  50.958  1.00  0.00    +0.106 C 
ATOM     17  C   UNL     1      23.573   2.885  49.495  1.00  0.00    +0.106 C 
ATOM     18  N   UNL     1      23.039   4.256  49.667  1.00  0.00    -0.296 NA
BRANCH  18  19
ATOM     19  C   UNL     1      22.155   4.661  48.564  1.00  0.00    +0.120 C 
BRANCH  19  20
ATOM     20  C   UNL     1      22.765   5.718  47.665  1.00  0.00    -0.033 A 
ATOM     21  C   UNL     1      23.851   6.491  48.103  1.00  0.00    +0.005 A 
ATOM     22  C   UNL     1      22.230   5.964  46.392  1.00  0.00    +0.020 A 
ATOM     23  C   UNL     1      24.402   7.478  47.283  1.00  0.00    +0.001 A 
ATOM     24  C   UNL     1      22.784   6.952  45.578  1.00  0.00    +0.018 A 
ATOM     25  C   UNL     1      23.868   7.709  46.016  1.00  0.00    +0.016 A 
ATOM     26 Br   UNL     1      22.057   7.267  43.861  1.00  0.00    -0.051 Br
ENDBRANCH  19  20
ENDBRANCH  18  19
ENDBRANCH   5  13
BRANCH   4  27
ATOM     27  O   UNL     1      20.211   0.899  52.539  1.00  0.00    -0.503 OA
ATOM     28  H   UNL     1      19.713   0.082  52.337  1.00  0.00    +0.293 HD
ENDBRANCH   4  27
TORSDOF 7
ENDMDL
MODEL 9
REMARK VINA RESULT:    -6.632      5.554      9.844
REMARK INTER + INTRA:          -9.192
REMARK INTER:                  -9.407
REMARK INTRA:                   0.214
REMARK UNBOUND:                -0.428
REMARK SMILES O=C(O)c1cc(O)c(O)c(N2CCN(Cc3cccc(Br)c3)CC2)c1
REMARK SMILES IDX 4 1 5 2 6 3 8 4 10 5 25 6 2 7 1 8 3 9 7 11 11 13 12 14 24 15
REMARK SMILES IDX 13 16 23 17 14 18 15 19 16 20 17 21 22 22 18 23 20 24 19 25
REMARK SMILES IDX 21 26 9 27
REMARK H PARENT 3 10 7 12 9 28
ROOT
ATOM      1  C   UNL     1      16.169  -0.357  50.023  1.00  0.00    +0.065 A 
ATOM      2  C   UNL     1      15.220  -0.858  50.915  1.00  0.00    +0.066 A 
ATOM      3  C   UNL     1      15.615  -1.124  52.214  1.00  0.00    +0.160 A 
ATOM      4  C   UNL     1      16.935  -0.897  52.634  1.00  0.00    +0.181 A 
ATOM      5  C   UNL     1      17.921  -0.387  51.765  1.00  0.00    +0.084 A 
ATOM      6  C   UNL     1      17.492  -0.130  50.448  1.00  0.00    +0.045 A 
ENDROOT
BRANCH   1   7
ATOM      7  C   UNL     1      15.827  -0.046  48.614  1.00  0.00    +0.335 C 
ATOM      8  O   UNL     1      15.407   1.017  48.195  1.00  0.00    -0.246 OA
BRANCH   7   9
ATOM      9  O   UNL     1      16.029  -1.088  47.788  1.00  0.00    -0.478 OA
ATOM     10  H   UNL     1      15.378  -1.755  48.095  1.00  0.00    +0.297 HD
ENDBRANCH   7   9
ENDBRANCH   1   7
BRANCH   3  11
ATOM     11  O   UNL     1      14.736  -1.628  53.139  1.00  0.00    -0.504 OA
ATOM     12  H   UNL     1      13.961  -1.042  53.179  1.00  0.00    +0.293 HD
ENDBRANCH   3  11
BRANCH   5  13
ATOM     13  N   UNL     1      19.235  -0.143  52.140  1.00  0.00    -0.366 N 
ATOM     14  C   UNL     1      20.142   0.683  51.329  1.00  0.00    +0.132 C 
ATOM     15  C   UNL     1      19.769  -0.636  53.421  1.00  0.00    +0.132 C 
ATOM     16  C   UNL     1      21.612   0.276  51.584  1.00  0.00    +0.106 C 
ATOM     17  C   UNL     1      20.928   0.260  53.924  1.00  0.00    +0.106 C 
ATOM     18  N   UNL     1      22.060   0.443  52.985  1.00  0.00    -0.296 NA
BRANCH  18  19
ATOM     19  C   UNL     1      23.179  -0.468  53.266  1.00  0.00    +0.120 C 
BRANCH  19  20
ATOM     20  C   UNL     1      24.525   0.229  53.298  1.00  0.00    -0.033 A 
ATOM     21  C   UNL     1      24.607   1.629  53.268  1.00  0.00    +0.005 A 
ATOM     22  C   UNL     1      25.712  -0.518  53.325  1.00  0.00    +0.020 A 
ATOM     23  C   UNL     1      25.847   2.272  53.278  1.00  0.00    +0.001 A 
ATOM     24  C   UNL     1      26.947   0.130  53.335  1.00  0.00    +0.018 A 
ATOM     25  C   UNL     1      27.021   1.521  53.313  1.00  0.00    +0.016 A 
ATOM     26 Br   UNL     1      28.539  -0.890  53.378  1.00  0.00    -0.051 Br
ENDBRANCH  19  20
ENDBRANCH  18  19
ENDBRANCH   5  13
BRANCH   4  27
ATOM     27  O   UNL     1      17.225  -1.236  53.937  1.00  0.00    -0.503 OA
ATOM     28  H   UNL     1      16.585  -1.941  54.156  1.00  0.00    +0.293 HD
ENDBRANCH   4  27
TORSDOF 7
ENDMDL
