MODEL 1
REMARK VINA RESULT:    -8.734      0.000      0.000
REMARK INTER + INTRA:         -14.419
REMARK INTER:                 -13.074
REMARK INTRA:                  -1.346
REMARK UNBOUND:                -1.346
REMARK SMILES CN(CC/N=N/Nc1ccc2ncnc(-c3ccc(O)c([N+](=O)[O-])c3)c2c1)c1ccccn1
REMARK SMILES IDX 5 1 6 2 4 3 3 4 2 5 1 6 28 7 29 8 33 9 30 10 32 11 31 12
REMARK SMILES IDX 7 13 8 15 9 16 27 17 10 18 26 19 11 20 15 21 12 22 14 23
REMARK SMILES IDX 13 24 16 25 17 26 25 27 18 28 21 29 19 30 22 31 23 32 24 33
REMARK SMILES IDX 20 34
REMARK H PARENT 7 14 20 35
ROOT
ATOM      1  N   UNL     1      21.324   3.953  51.089  1.00  0.00    -0.169 NA
ATOM      2  N   UNL     1      22.167   3.192  50.583  1.00  0.00    -0.075 NA
ENDROOT
BRANCH   1   3
ATOM      3  C   UNL     1      21.839   5.324  51.267  1.00  0.00    +0.190 C 
BRANCH   3   4
ATOM      4  C   UNL     1      23.374   5.331  51.276  1.00  0.00    +0.143 C 
BRANCH   4   5
ATOM      5  N   UNL     1      23.911   6.049  50.107  1.00  0.00    -0.358 N 
ATOM      6  C   UNL     1      23.735   7.501  50.121  1.00  0.00    +0.145 C 
BRANCH   5   7
ATOM      7  C   UNL     1      25.161   5.630  49.631  1.00  0.00    +0.128 A 
ATOM      8  C   UNL     1      25.562   4.297  49.768  1.00  0.00    +0.047 A 
ATOM      9  N   UNL     1      25.963   6.517  49.000  1.00  0.00    -0.239 NA
ATOM     10  C   UNL     1      26.806   3.884  49.291  1.00  0.00    +0.005 A 
ATOM     11  C   UNL     1      27.163   6.097  48.539  1.00  0.00    +0.113 A 
ATOM     12  C   UNL     1      27.629   4.806  48.665  1.00  0.00    +0.020 A 
ENDBRANCH   5   7
ENDBRANCH   4   5
ENDBRANCH   3   4
ENDBRANCH   1   3
BRANCH   2  13
ATOM     13  N   UNL     1      21.548   2.006  50.443  1.00  0.00    -0.260 N 
ATOM     14  H   UNL     1      20.704   2.032  49.883  1.00  0.00    +0.192 HD
BRANCH  13  15
ATOM     15  C   UNL     1      21.554   1.102  51.518  1.00  0.00    +0.059 A 
ATOM     16  C   UNL     1      20.386   0.564  52.058  1.00  0.00    +0.030 A 
ATOM     17  C   UNL     1      22.758   0.817  52.171  1.00  0.00    +0.040 A 
ATOM     18  C   UNL     1      20.437  -0.286  53.170  1.00  0.00    +0.031 A 
ATOM     19  C   UNL     1      22.813  -0.026  53.318  1.00  0.00    +0.029 A 
ATOM     20  C   UNL     1      21.631  -0.598  53.803  1.00  0.00    +0.074 A 
ATOM     21  C   UNL     1      23.971  -0.367  54.040  1.00  0.00    +0.082 A 
ATOM     22  N   UNL     1      21.599  -1.428  54.853  1.00  0.00    -0.236 NA
ATOM     23  N   UNL     1      23.960  -1.218  55.091  1.00  0.00    -0.236 NA
ATOM     24  C   UNL     1      22.767  -1.705  55.442  1.00  0.00    +0.223 A 
BRANCH  21  25
ATOM     25  C   UNL     1      25.313   0.171  53.747  1.00  0.00    +0.008 A 
ATOM     26  C   UNL     1      25.508   1.537  53.455  1.00  0.00    +0.015 A 
ATOM     27  C   UNL     1      26.440  -0.663  53.793  1.00  0.00    +0.100 A 
ATOM     28  C   UNL     1      26.783   2.055  53.186  1.00  0.00    +0.054 A 
ATOM     29  C   UNL     1      27.707  -0.133  53.522  1.00  0.00    +0.311 A 
ATOM     30  C   UNL     1      27.891   1.215  53.218  1.00  0.00    +0.194 A 
BRANCH  29  31
ATOM     31  N   UNL     1      28.841  -1.029  53.561  1.00  0.00    +0.066 N 
ATOM     32  O   UNL     1      28.661  -2.189  53.163  1.00  0.00    -0.258 OA
ATOM     33  O   UNL     1      29.892  -0.581  54.043  1.00  0.00    -0.258 OA
ENDBRANCH  29  31
BRANCH  30  34
ATOM     34  O   UNL     1      29.135   1.715  52.976  1.00  0.00    -0.502 OA
ATOM     35  H   UNL     1      29.095   2.391  52.280  1.00  0.00    +0.293 HD
ENDBRANCH  30  34
ENDBRANCH  21  25
ENDBRANCH  13  15
ENDBRANCH   2  13
TORSDOF 9
ENDMDL
MODEL 2
REMARK VINA RESULT:    -8.668      2.255      3.601
REMARK INTER + INTRA:         -14.320
REMARK INTER:                 -11.735
REMARK INTRA:                  -2.586
REMARK UNBOUND:                -1.346
REMARK SMILES CN(CC/N=N/Nc1ccc2ncnc(-c3ccc(O)c([N+](=O)[O-])c3)c2c1)c1ccccn1
REMARK SMILES IDX 5 1 6 2 4 3 3 4 2 5 1 6 28 7 29 8 33 9 30 10 32 11 31 12
REMARK SMILES IDX 7 13 8 15 9 16 27 17 10 18 26 19 11 20 15 21 12 22 14 23
REMARK SMILES IDX 13 24 16 25 17 26 25 27 18 28 21 29 19 30 22 31 23 32 24 33
REMARK SMILES IDX 20 34
REMARK H PARENT 7 14 20 35
ROOT
ATOM      1  N   UNL     1      23.543   7.276  50.943  1.00  0.00    -0.169 NA
ATOM      2  N   UNL     1      24.421   6.469  51.292  1.00  0.00    -0.075 NA
ENDROOT
BRANCH   1   3
ATOM      3  C   UNL     1      23.887   7.975  49.691  1.00  0.00    +0.190 C 
BRANCH   3   4
ATOM      4  C   UNL     1      23.849   7.008  48.500  1.00  0.00    +0.143 C 
BRANCH   4   5
ATOM      5  N   UNL     1      22.497   6.457  48.305  1.00  0.00    -0.358 N 
ATOM      6  C   UNL     1      21.723   7.048  47.213  1.00  0.00    +0.145 C 
BRANCH   5   7
ATOM      7  C   UNL     1      22.364   5.065  48.410  1.00  0.00    +0.128 A 
ATOM      8  C   UNL     1      23.470   4.268  48.719  1.00  0.00    +0.047 A 
ATOM      9  N   UNL     1      21.145   4.501  48.249  1.00  0.00    -0.239 NA
ATOM     10  C   UNL     1      23.332   2.883  48.824  1.00  0.00    +0.005 A 
ATOM     11  C   UNL     1      21.030   3.158  48.361  1.00  0.00    +0.113 A 
ATOM     12  C   UNL     1      22.084   2.313  48.638  1.00  0.00    +0.020 A 
ENDBRANCH   5   7
ENDBRANCH   4   5
ENDBRANCH   3   4
ENDBRANCH   1   3
BRANCH   2  13
ATOM     13  N   UNL     1      23.954   5.884  52.410  1.00  0.00    -0.260 N 
ATOM     14  H   UNL     1      24.592   5.905  53.197  1.00  0.00    +0.192 HD
BRANCH  13  15
ATOM     15  C   UNL     1      23.145   4.742  52.295  1.00  0.00    +0.059 A 
ATOM     16  C   UNL     1      21.767   4.811  52.092  1.00  0.00    +0.030 A 
ATOM     17  C   UNL     1      23.703   3.478  52.519  1.00  0.00    +0.040 A 
ATOM     18  C   UNL     1      20.991   3.646  52.045  1.00  0.00    +0.031 A 
ATOM     19  C   UNL     1      22.914   2.292  52.497  1.00  0.00    +0.029 A 
ATOM     20  C   UNL     1      21.542   2.387  52.235  1.00  0.00    +0.074 A 
ATOM     21  C   UNL     1      23.383   0.983  52.713  1.00  0.00    +0.082 A 
ATOM     22  N   UNL     1      20.738   1.320  52.163  1.00  0.00    -0.236 NA
ATOM     23  N   UNL     1      22.588  -0.107  52.626  1.00  0.00    -0.236 NA
ATOM     24  C   UNL     1      21.300   0.123  52.354  1.00  0.00    +0.223 A 
BRANCH  21  25
ATOM     25  C   UNL     1      24.776   0.655  53.070  1.00  0.00    +0.008 A 
ATOM     26  C   UNL     1      25.789   0.593  52.090  1.00  0.00    +0.015 A 
ATOM     27  C   UNL     1      25.136   0.436  54.407  1.00  0.00    +0.100 A 
ATOM     28  C   UNL     1      27.116   0.293  52.426  1.00  0.00    +0.054 A 
ATOM     29  C   UNL     1      26.465   0.136  54.728  1.00  0.00    +0.311 A 
ATOM     30  C   UNL     1      27.458   0.060  53.754  1.00  0.00    +0.194 A 
BRANCH  29  31
ATOM     31  N   UNL     1      26.792  -0.101  56.117  1.00  0.00    +0.066 N 
ATOM     32  O   UNL     1      25.975  -0.749  56.789  1.00  0.00    -0.258 OA
ATOM     33  O   UNL     1      27.839   0.410  56.540  1.00  0.00    -0.258 OA
ENDBRANCH  29  31
BRANCH  30  34
ATOM     34  O   UNL     1      28.750  -0.215  54.090  1.00  0.00    -0.502 OA
ATOM     35  H   UNL     1      29.043   0.374  54.804  1.00  0.00    +0.293 HD
ENDBRANCH  30  34
ENDBRANCH  21  25
ENDBRANCH  13  15
ENDBRANCH   2  13
TORSDOF 9
ENDMDL
MODEL 3
REMARK VINA RESULT:    -8.656      1.889      3.108
REMARK INTER + INTRA:         -14.302
REMARK INTER:                 -12.093
REMARK INTRA:                  -2.210
REMARK UNBOUND:                -1.346
REMARK SMILES CN(CC/N=N/Nc1ccc2ncnc(-c3ccc(O)c([N+](=O)[O-])c3)c2c1)c1ccccn1
REMARK SMILES IDX 5 1 6 2 4 3 3 4 2 5 1 6 28 7 29 8 33 9 30 10 32 11 31 12
REMARK SMILES IDX 7 13 8 15 9 16 27 17 10 18 26 19 11 20 15 21 12 22 14 23
REMARK SMILES IDX 13 24 16 25 17 26 25 27 18 28 21 29 19 30 22 31 23 32 24 33
REMARK SMILES IDX 20 34
REMARK H PARENT 7 14 20 35
ROOT
ATOM      1  N   UNL     1      23.844   7.453  51.348  1.00  0.00    -0.169 NA
ATOM      2  N   UNL     1      24.539   6.476  51.675  1.00  0.00    -0.075 NA
ENDROOT
BRANCH   1   3
ATOM      3  C   UNL     1      24.397   8.172  50.185  1.00  0.00    +0.190 C 
BRANCH   3   4
ATOM      4  C   UNL     1      23.693   7.737  48.892  1.00  0.00    +0.143 C 
BRANCH   4   5
ATOM      5  N   UNL     1      24.599   6.960  48.028  1.00  0.00    -0.358 N 
ATOM      6  C   UNL     1      25.605   7.737  47.304  1.00  0.00    +0.145 C 
BRANCH   5   7
ATOM      7  C   UNL     1      25.078   5.749  48.547  1.00  0.00    +0.128 A 
ATOM      8  C   UNL     1      24.200   4.691  48.806  1.00  0.00    +0.047 A 
ATOM      9  N   UNL     1      26.405   5.596  48.759  1.00  0.00    -0.239 NA
ATOM     10  C   UNL     1      24.682   3.488  49.321  1.00  0.00    +0.005 A 
ATOM     11  C   UNL     1      26.854   4.420  49.253  1.00  0.00    +0.113 A 
ATOM     12  C   UNL     1      26.040   3.348  49.554  1.00  0.00    +0.020 A 
ENDBRANCH   5   7
ENDBRANCH   4   5
ENDBRANCH   3   4
ENDBRANCH   1   3
BRANCH   2  13
ATOM     13  N   UNL     1      23.895   5.901  52.707  1.00  0.00    -0.260 N 
ATOM     14  H   UNL     1      24.394   5.935  53.589  1.00  0.00    +0.192 HD
BRANCH  13  15
ATOM     15  C   UNL     1      23.122   4.753  52.474  1.00  0.00    +0.059 A 
ATOM     16  C   UNL     1      21.754   4.805  52.207  1.00  0.00    +0.030 A 
ATOM     17  C   UNL     1      23.699   3.489  52.639  1.00  0.00    +0.040 A 
ATOM     18  C   UNL     1      21.011   3.630  52.042  1.00  0.00    +0.031 A 
ATOM     19  C   UNL     1      22.943   2.290  52.497  1.00  0.00    +0.029 A 
ATOM     20  C   UNL     1      21.583   2.373  52.173  1.00  0.00    +0.074 A 
ATOM     21  C   UNL     1      23.433   0.979  52.646  1.00  0.00    +0.082 A 
ATOM     22  N   UNL     1      20.810   1.297  51.988  1.00  0.00    -0.236 NA
ATOM     23  N   UNL     1      22.671  -0.119  52.445  1.00  0.00    -0.236 NA
ATOM     24  C   UNL     1      21.392   0.101  52.125  1.00  0.00    +0.223 A 
BRANCH  21  25
ATOM     25  C   UNL     1      24.815   0.658  53.049  1.00  0.00    +0.008 A 
ATOM     26  C   UNL     1      25.865   0.628  52.109  1.00  0.00    +0.015 A 
ATOM     27  C   UNL     1      25.125   0.413  54.395  1.00  0.00    +0.100 A 
ATOM     28  C   UNL     1      27.182   0.333  52.489  1.00  0.00    +0.054 A 
ATOM     29  C   UNL     1      26.444   0.119  54.761  1.00  0.00    +0.311 A 
ATOM     30  C   UNL     1      27.475   0.075  53.824  1.00  0.00    +0.194 A 
BRANCH  29  31
ATOM     31  N   UNL     1      26.720  -0.146  56.155  1.00  0.00    +0.066 N 
ATOM     32  O   UNL     1      25.897  -0.836  56.774  1.00  0.00    -0.258 OA
ATOM     33  O   UNL     1      27.731   0.386  56.637  1.00  0.00    -0.258 OA
ENDBRANCH  29  31
BRANCH  30  34
ATOM     34  O   UNL     1      28.755  -0.194  54.203  1.00  0.00    -0.502 OA
ATOM     35  H   UNL     1      29.120  -0.916  53.665  1.00  0.00    +0.293 HD
ENDBRANCH  30  34
ENDBRANCH  21  25
ENDBRANCH  13  15
ENDBRANCH   2  13
TORSDOF 9
ENDMDL
MODEL 4
REMARK VINA RESULT:    -8.596      1.823      6.116
REMARK INTER + INTRA:         -14.213
REMARK INTER:                 -12.013
REMARK INTRA:                  -2.200
REMARK UNBOUND:                -1.346
REMARK SMILES CN(CC/N=N/Nc1ccc2ncnc(-c3ccc(O)c([N+](=O)[O-])c3)c2c1)c1ccccn1
REMARK SMILES IDX 5 1 6 2 4 3 3 4 2 5 1 6 28 7 29 8 33 9 30 10 32 11 31 12
REMARK SMILES IDX 7 13 8 15 9 16 27 17 10 18 26 19 11 20 15 21 12 22 14 23
REMARK SMILES IDX 13 24 16 25 17 26 25 27 18 28 21 29 19 30 22 31 23 32 24 33
REMARK SMILES IDX 20 34
REMARK H PARENT 7 14 20 35
ROOT
ATOM      1  N   UNL     1      19.162   2.784  51.896  1.00  0.00    -0.169 NA
ATOM      2  N   UNL     1      20.168   2.768  51.166  1.00  0.00    -0.075 NA
ENDROOT
BRANCH   1   3
ATOM      3  C   UNL     1      18.191   1.733  51.538  1.00  0.00    +0.190 C 
BRANCH   3   4
ATOM      4  C   UNL     1      18.874   0.361  51.473  1.00  0.00    +0.143 C 
BRANCH   4   5
ATOM      5  N   UNL     1      19.062  -0.205  52.821  1.00  0.00    -0.358 N 
ATOM      6  C   UNL     1      18.116  -1.252  53.205  1.00  0.00    +0.145 C 
BRANCH   5   7
ATOM      7  C   UNL     1      20.383  -0.454  53.220  1.00  0.00    +0.128 A 
ATOM      8  C   UNL     1      21.453   0.128  52.534  1.00  0.00    +0.047 A 
ATOM      9  N   UNL     1      20.614  -1.232  54.302  1.00  0.00    -0.239 NA
ATOM     10  C   UNL     1      22.766  -0.121  52.936  1.00  0.00    +0.005 A 
ATOM     11  C   UNL     1      21.893  -1.457  54.680  1.00  0.00    +0.113 A 
ATOM     12  C   UNL     1      22.993  -0.935  54.032  1.00  0.00    +0.020 A 
ENDBRANCH   5   7
ENDBRANCH   4   5
ENDBRANCH   3   4
ENDBRANCH   1   3
BRANCH   2  13
ATOM     13  N   UNL     1      20.972   3.740  51.635  1.00  0.00    -0.260 N 
ATOM     14  H   UNL     1      20.487   4.538  52.028  1.00  0.00    +0.192 HD
BRANCH  13  15
ATOM     15  C   UNL     1      22.175   4.013  50.964  1.00  0.00    +0.059 A 
ATOM     16  C   UNL     1      22.233   4.772  49.796  1.00  0.00    +0.030 A 
ATOM     17  C   UNL     1      23.357   3.400  51.395  1.00  0.00    +0.040 A 
ATOM     18  C   UNL     1      23.448   4.967  49.127  1.00  0.00    +0.031 A 
ATOM     19  C   UNL     1      24.591   3.574  50.705  1.00  0.00    +0.029 A 
ATOM     20  C   UNL     1      24.630   4.389  49.567  1.00  0.00    +0.074 A 
ATOM     21  C   UNL     1      25.826   2.999  51.059  1.00  0.00    +0.082 A 
ATOM     22  N   UNL     1      25.753   4.631  48.881  1.00  0.00    -0.236 NA
ATOM     23  N   UNL     1      26.973   3.249  50.389  1.00  0.00    -0.236 NA
ATOM     24  C   UNL     1      26.873   4.056  49.330  1.00  0.00    +0.223 A 
BRANCH  21  25
ATOM     25  C   UNL     1      26.004   2.057  52.180  1.00  0.00    +0.008 A 
ATOM     26  C   UNL     1      25.631   2.403  53.496  1.00  0.00    +0.015 A 
ATOM     27  C   UNL     1      26.516   0.771  51.955  1.00  0.00    +0.100 A 
ATOM     28  C   UNL     1      25.789   1.508  54.562  1.00  0.00    +0.054 A 
ATOM     29  C   UNL     1      26.669  -0.113  53.030  1.00  0.00    +0.311 A 
ATOM     30  C   UNL     1      26.313   0.241  54.330  1.00  0.00    +0.194 A 
BRANCH  29  31
ATOM     31  N   UNL     1      27.217  -1.423  52.759  1.00  0.00    +0.066 N 
ATOM     32  O   UNL     1      26.557  -2.174  52.026  1.00  0.00    -0.258 OA
ATOM     33  O   UNL     1      28.280  -1.713  53.328  1.00  0.00    -0.258 OA
ENDBRANCH  29  31
BRANCH  30  34
ATOM     34  O   UNL     1      26.453  -0.641  55.359  1.00  0.00    -0.502 OA
ATOM     35  H   UNL     1      26.789  -1.491  55.029  1.00  0.00    +0.293 HD
ENDBRANCH  30  34
ENDBRANCH  21  25
ENDBRANCH  13  15
ENDBRANCH   2  13
TORSDOF 9
ENDMDL
MODEL 5
REMARK VINA RESULT:    -8.465      1.289      1.660
REMARK INTER + INTRA:         -14.017
REMARK INTER:                 -12.311
REMARK INTRA:                  -1.706
REMARK UNBOUND:                -1.346
REMARK SMILES CN(CC/N=N/Nc1ccc2ncnc(-c3ccc(O)c([N+](=O)[O-])c3)c2c1)c1ccccn1
REMARK SMILES IDX 5 1 6 2 4 3 3 4 2 5 1 6 28 7 29 8 33 9 30 10 32 11 31 12
REMARK SMILES IDX 7 13 8 15 9 16 27 17 10 18 26 19 11 20 15 21 12 22 14 23
REMARK SMILES IDX 13 24 16 25 17 26 25 27 18 28 21 29 19 30 22 31 23 32 24 33
REMARK SMILES IDX 20 34
REMARK H PARENT 7 14 20 35
ROOT
ATOM      1  N   UNL     1      21.119   3.974  48.874  1.00  0.00    -0.169 NA
ATOM      2  N   UNL     1      21.953   3.053  48.917  1.00  0.00    -0.075 NA
ENDROOT
BRANCH   1   3
ATOM      3  C   UNL     1      21.752   5.307  48.885  1.00  0.00    +0.190 C 
BRANCH   3   4
ATOM      4  C   UNL     1      22.545   5.520  50.181  1.00  0.00    +0.143 C 
BRANCH   4   5
ATOM      5  N   UNL     1      23.735   6.357  49.946  1.00  0.00    -0.358 N 
ATOM      6  C   UNL     1      23.927   7.462  50.885  1.00  0.00    +0.145 C 
BRANCH   5   7
ATOM      7  C   UNL     1      24.917   5.686  49.604  1.00  0.00    +0.128 A 
ATOM      8  C   UNL     1      25.941   6.353  48.923  1.00  0.00    +0.047 A 
ATOM      9  N   UNL     1      25.079   4.395  49.974  1.00  0.00    -0.239 NA
ATOM     10  C   UNL     1      27.116   5.682  48.586  1.00  0.00    +0.005 A 
ATOM     11  C   UNL     1      26.228   3.763  49.644  1.00  0.00    +0.113 A 
ATOM     12  C   UNL     1      27.264   4.354  48.951  1.00  0.00    +0.020 A 
ENDBRANCH   5   7
ENDBRANCH   4   5
ENDBRANCH   3   4
ENDBRANCH   1   3
BRANCH   2  13
ATOM     13  N   UNL     1      21.240   1.914  48.856  1.00  0.00    -0.260 N 
ATOM     14  H   UNL     1      20.518   1.905  48.144  1.00  0.00    +0.192 HD
BRANCH  13  15
ATOM     15  C   UNL     1      20.952   1.225  50.044  1.00  0.00    +0.059 A 
ATOM     16  C   UNL     1      19.653   0.899  50.432  1.00  0.00    +0.030 A 
ATOM     17  C   UNL     1      21.982   0.959  50.953  1.00  0.00    +0.040 A 
ATOM     18  C   UNL     1      19.408   0.265  51.656  1.00  0.00    +0.031 A 
ATOM     19  C   UNL     1      21.736   0.337  52.210  1.00  0.00    +0.029 A 
ATOM     20  C   UNL     1      20.428  -0.031  52.548  1.00  0.00    +0.074 A 
ATOM     21  C   UNL     1      22.703   0.034  53.187  1.00  0.00    +0.082 A 
ATOM     22  N   UNL     1      20.117  -0.649  53.693  1.00  0.00    -0.236 NA
ATOM     23  N   UNL     1      22.409  -0.608  54.340  1.00  0.00    -0.236 NA
ATOM     24  C   UNL     1      21.123  -0.915  54.532  1.00  0.00    +0.223 A 
BRANCH  21  25
ATOM     25  C   UNL     1      24.130   0.389  53.071  1.00  0.00    +0.008 A 
ATOM     26  C   UNL     1      24.543   1.729  52.919  1.00  0.00    +0.015 A 
ATOM     27  C   UNL     1      25.119  -0.602  53.153  1.00  0.00    +0.100 A 
ATOM     28  C   UNL     1      25.898   2.072  52.820  1.00  0.00    +0.054 A 
ATOM     29  C   UNL     1      26.469  -0.246  53.052  1.00  0.00    +0.311 A 
ATOM     30  C   UNL     1      26.870   1.078  52.885  1.00  0.00    +0.194 A 
BRANCH  29  31
ATOM     31  N   UNL     1      27.457  -1.299  53.122  1.00  0.00    +0.066 N 
ATOM     32  O   UNL     1      27.230  -2.334  52.478  1.00  0.00    -0.258 OA
ATOM     33  O   UNL     1      28.430  -1.105  53.866  1.00  0.00    -0.258 OA
ENDBRANCH  29  31
BRANCH  30  34
ATOM     34  O   UNL     1      28.190   1.407  52.807  1.00  0.00    -0.502 OA
ATOM     35  H   UNL     1      28.368   2.206  53.329  1.00  0.00    +0.293 HD
ENDBRANCH  30  34
ENDBRANCH  21  25
ENDBRANCH  13  15
ENDBRANCH   2  13
TORSDOF 9
ENDMDL
MODEL 6
REMARK VINA RESULT:    -8.401      1.429      2.085
REMARK INTER + INTRA:         -13.921
REMARK INTER:                 -12.539
REMARK INTRA:                  -1.381
REMARK UNBOUND:                -1.346
REMARK SMILES CN(CC/N=N/Nc1ccc2ncnc(-c3ccc(O)c([N+](=O)[O-])c3)c2c1)c1ccccn1
REMARK SMILES IDX 5 1 6 2 4 3 3 4 2 5 1 6 28 7 29 8 33 9 30 10 32 11 31 12
REMARK SMILES IDX 7 13 8 15 9 16 27 17 10 18 26 19 11 20 15 21 12 22 14 23
REMARK SMILES IDX 13 24 16 25 17 26 25 27 18 28 21 29 19 30 22 31 23 32 24 33
REMARK SMILES IDX 20 34
REMARK H PARENT 7 14 20 35
ROOT
ATOM      1  N   UNL     1      22.723   4.617  49.402  1.00  0.00    -0.169 NA
ATOM      2  N   UNL     1      23.626   4.045  50.036  1.00  0.00    -0.075 NA
ENDROOT
BRANCH   1   3
ATOM      3  C   UNL     1      22.830   6.087  49.473  1.00  0.00    +0.190 C 
BRANCH   3   4
ATOM      4  C   UNL     1      23.903   6.601  48.503  1.00  0.00    +0.143 C 
BRANCH   4   5
ATOM      5  N   UNL     1      25.053   7.165  49.230  1.00  0.00    -0.358 N 
ATOM      6  C   UNL     1      24.842   7.409  50.657  1.00  0.00    +0.145 C 
BRANCH   5   7
ATOM      7  C   UNL     1      26.313   6.635  48.921  1.00  0.00    +0.128 A 
ATOM      8  C   UNL     1      26.532   5.254  48.961  1.00  0.00    +0.047 A 
ATOM      9  N   UNL     1      27.310   7.468  48.544  1.00  0.00    -0.239 NA
ATOM     10  C   UNL     1      27.788   4.731  48.651  1.00  0.00    +0.005 A 
ATOM     11  C   UNL     1      28.518   6.942  48.241  1.00  0.00    +0.113 A 
ATOM     12  C   UNL     1      28.807   5.595  48.286  1.00  0.00    +0.020 A 
ENDBRANCH   5   7
ENDBRANCH   4   5
ENDBRANCH   3   4
ENDBRANCH   1   3
BRANCH   2  13
ATOM     13  N   UNL     1      23.426   2.729  49.846  1.00  0.00    -0.260 N 
ATOM     14  H   UNL     1      23.101   2.480  48.919  1.00  0.00    +0.192 HD
BRANCH  13  15
ATOM     15  C   UNL     1      22.933   1.953  50.907  1.00  0.00    +0.059 A 
ATOM     16  C   UNL     1      21.599   1.988  51.311  1.00  0.00    +0.030 A 
ATOM     17  C   UNL     1      23.824   1.206  51.686  1.00  0.00    +0.040 A 
ATOM     18  C   UNL     1      21.165   1.243  52.415  1.00  0.00    +0.031 A 
ATOM     19  C   UNL     1      23.392   0.467  52.825  1.00  0.00    +0.029 A 
ATOM     20  C   UNL     1      22.036   0.475  53.173  1.00  0.00    +0.074 A 
ATOM     21  C   UNL     1      24.211  -0.308  53.667  1.00  0.00    +0.082 A 
ATOM     22  N   UNL     1      21.544  -0.219  54.206  1.00  0.00    -0.236 NA
ATOM     23  N   UNL     1      23.728  -1.030  54.703  1.00  0.00    -0.236 NA
ATOM     24  C   UNL     1      22.412  -0.945  54.917  1.00  0.00    +0.223 A 
BRANCH  21  25
ATOM     25  C   UNL     1      25.676  -0.408  53.528  1.00  0.00    +0.008 A 
ATOM     26  C   UNL     1      26.292  -1.596  53.081  1.00  0.00    +0.015 A 
ATOM     27  C   UNL     1      26.494   0.699  53.798  1.00  0.00    +0.100 A 
ATOM     28  C   UNL     1      27.682  -1.692  52.937  1.00  0.00    +0.054 A 
ATOM     29  C   UNL     1      27.882   0.589  53.650  1.00  0.00    +0.311 A 
ATOM     30  C   UNL     1      28.485  -0.593  53.224  1.00  0.00    +0.194 A 
BRANCH  29  31
ATOM     31  N   UNL     1      28.692   1.746  53.956  1.00  0.00    +0.066 N 
ATOM     32  O   UNL     1      29.302   1.742  55.036  1.00  0.00    -0.258 OA
ATOM     33  O   UNL     1      28.668   2.679  53.139  1.00  0.00    -0.258 OA
ENDBRANCH  29  31
BRANCH  30  34
ATOM     34  O   UNL     1      29.836  -0.674  53.069  1.00  0.00    -0.502 OA
ATOM     35  H   UNL     1      30.183  -1.448  53.543  1.00  0.00    +0.293 HD
ENDBRANCH  30  34
ENDBRANCH  21  25
ENDBRANCH  13  15
ENDBRANCH   2  13
TORSDOF 9
ENDMDL
MODEL 7
REMARK VINA RESULT:    -8.202      2.133      3.768
REMARK INTER + INTRA:         -13.623
REMARK INTER:                 -11.709
REMARK INTRA:                  -1.914
REMARK UNBOUND:                -1.346
REMARK SMILES CN(CC/N=N/Nc1ccc2ncnc(-c3ccc(O)c([N+](=O)[O-])c3)c2c1)c1ccccn1
REMARK SMILES IDX 5 1 6 2 4 3 3 4 2 5 1 6 28 7 29 8 33 9 30 10 32 11 31 12
REMARK SMILES IDX 7 13 8 15 9 16 27 17 10 18 26 19 11 20 15 21 12 22 14 23
REMARK SMILES IDX 13 24 16 25 17 26 25 27 18 28 21 29 19 30 22 31 23 32 24 33
REMARK SMILES IDX 20 34
REMARK H PARENT 7 14 20 35
ROOT
ATOM      1  N   UNL     1      24.047   6.420  49.899  1.00  0.00    -0.169 NA
ATOM      2  N   UNL     1      24.766   5.416  50.047  1.00  0.00    -0.075 NA
ENDROOT
BRANCH   1   3
ATOM      3  C   UNL     1      24.018   6.890  48.502  1.00  0.00    +0.190 C 
BRANCH   3   4
ATOM      4  C   UNL     1      23.359   5.846  47.590  1.00  0.00    +0.143 C 
BRANCH   4   5
ATOM      5  N   UNL     1      21.976   5.566  48.014  1.00  0.00    -0.358 N 
ATOM      6  C   UNL     1      20.934   6.301  47.298  1.00  0.00    +0.145 C 
BRANCH   5   7
ATOM      7  C   UNL     1      21.656   4.226  48.270  1.00  0.00    +0.128 A 
ATOM      8  C   UNL     1      22.640   3.234  48.198  1.00  0.00    +0.047 A 
ATOM      9  N   UNL     1      20.393   3.901  48.629  1.00  0.00    -0.239 NA
ATOM     10  C   UNL     1      22.317   1.902  48.456  1.00  0.00    +0.005 A 
ATOM     11  C   UNL     1      20.100   2.605  48.881  1.00  0.00    +0.113 A 
ATOM     12  C   UNL     1      21.016   1.577  48.802  1.00  0.00    +0.020 A 
ENDBRANCH   5   7
ENDBRANCH   4   5
ENDBRANCH   3   4
ENDBRANCH   1   3
BRANCH   2  13
ATOM     13  N   UNL     1      24.660   5.081  51.346  1.00  0.00    -0.260 N 
ATOM     14  H   UNL     1      25.509   5.207  51.886  1.00  0.00    +0.192 HD
BRANCH  13  15
ATOM     15  C   UNL     1      23.849   3.993  51.705  1.00  0.00    +0.059 A 
ATOM     16  C   UNL     1      22.462   4.086  51.804  1.00  0.00    +0.030 A 
ATOM     17  C   UNL     1      24.447   2.794  52.110  1.00  0.00    +0.040 A 
ATOM     18  C   UNL     1      21.698   2.990  52.226  1.00  0.00    +0.031 A 
ATOM     19  C   UNL     1      23.677   1.685  52.564  1.00  0.00    +0.029 A 
ATOM     20  C   UNL     1      22.281   1.787  52.598  1.00  0.00    +0.074 A 
ATOM     21  C   UNL     1      24.186   0.444  52.993  1.00  0.00    +0.082 A 
ATOM     22  N   UNL     1      21.485   0.782  52.979  1.00  0.00    -0.236 NA
ATOM     23  N   UNL     1      23.395  -0.588  53.362  1.00  0.00    -0.236 NA
ATOM     24  C   UNL     1      22.079  -0.361  53.335  1.00  0.00    +0.223 A 
BRANCH  21  25
ATOM     25  C   UNL     1      25.625   0.137  53.101  1.00  0.00    +0.008 A 
ATOM     26  C   UNL     1      26.123  -1.153  52.825  1.00  0.00    +0.015 A 
ATOM     27  C   UNL     1      26.543   1.141  53.444  1.00  0.00    +0.100 A 
ATOM     28  C   UNL     1      27.490  -1.447  52.916  1.00  0.00    +0.054 A 
ATOM     29  C   UNL     1      27.906   0.834  53.531  1.00  0.00    +0.311 A 
ATOM     30  C   UNL     1      28.390  -0.447  53.273  1.00  0.00    +0.194 A 
BRANCH  29  31
ATOM     31  N   UNL     1      28.818   1.891  53.905  1.00  0.00    +0.066 N 
ATOM     32  O   UNL     1      29.396   1.782  54.997  1.00  0.00    -0.258 OA
ATOM     33  O   UNL     1      28.908   2.853  53.129  1.00  0.00    -0.258 OA
ENDBRANCH  29  31
BRANCH  30  34
ATOM     34  O   UNL     1      29.722  -0.721  53.346  1.00  0.00    -0.502 OA
ATOM     35  H   UNL     1      30.201  -0.242  52.650  1.00  0.00    +0.293 HD
ENDBRANCH  30  34
ENDBRANCH  21  25
ENDBRANCH  13  15
ENDBRANCH   2  13
TORSDOF 9
ENDMDL
MODEL 8
REMARK VINA RESULT:    -8.187      3.372      6.695
REMARK INTER + INTRA:         -13.600
REMARK INTER:                 -11.804
REMARK INTRA:                  -1.796
REMARK UNBOUND:                -1.346
REMARK SMILES CN(CC/N=N/Nc1ccc2ncnc(-c3ccc(O)c([N+](=O)[O-])c3)c2c1)c1ccccn1
REMARK SMILES IDX 5 1 6 2 4 3 3 4 2 5 1 6 28 7 29 8 33 9 30 10 32 11 31 12
REMARK SMILES IDX 7 13 8 15 9 16 27 17 10 18 26 19 11 20 15 21 12 22 14 23
REMARK SMILES IDX 13 24 16 25 17 26 25 27 18 28 21 29 19 30 22 31 23 32 24 33
REMARK SMILES IDX 20 34
REMARK H PARENT 7 14 20 35
ROOT
ATOM      1  N   UNL     1      22.589  -1.027  55.127  1.00  0.00    -0.169 NA
ATOM      2  N   UNL     1      21.954  -1.405  54.127  1.00  0.00    -0.075 NA
ENDROOT
BRANCH   1   3
ATOM      3  C   UNL     1      24.035  -0.913  54.864  1.00  0.00    +0.190 C 
BRANCH   3   4
ATOM      4  C   UNL     1      24.313  -0.881  53.355  1.00  0.00    +0.143 C 
BRANCH   4   5
ATOM      5  N   UNL     1      25.290   0.168  53.015  1.00  0.00    -0.358 N 
ATOM      6  C   UNL     1      24.858   1.542  53.269  1.00  0.00    +0.145 C 
BRANCH   5   7
ATOM      7  C   UNL     1      26.626  -0.083  53.356  1.00  0.00    +0.128 A 
ATOM      8  C   UNL     1      27.278  -1.225  52.879  1.00  0.00    +0.047 A 
ATOM      9  N   UNL     1      27.295   0.810  54.119  1.00  0.00    -0.239 NA
ATOM     10  C   UNL     1      28.609  -1.469  53.220  1.00  0.00    +0.005 A 
ATOM     11  C   UNL     1      28.587   0.560  54.434  1.00  0.00    +0.113 A 
ATOM     12  C   UNL     1      29.279  -0.559  54.019  1.00  0.00    +0.020 A 
ENDBRANCH   5   7
ENDBRANCH   4   5
ENDBRANCH   3   4
ENDBRANCH   1   3
BRANCH   2  13
ATOM     13  N   UNL     1      20.662  -1.419  54.501  1.00  0.00    -0.260 N 
ATOM     14  H   UNL     1      20.412  -2.174  55.130  1.00  0.00    +0.192 HD
BRANCH  13  15
ATOM     15  C   UNL     1      19.680  -1.029  53.577  1.00  0.00    +0.059 A 
ATOM     16  C   UNL     1      18.427  -1.636  53.504  1.00  0.00    +0.030 A 
ATOM     17  C   UNL     1      19.996  -0.082  52.596  1.00  0.00    +0.040 A 
ATOM     18  C   UNL     1      17.501  -1.254  52.526  1.00  0.00    +0.031 A 
ATOM     19  C   UNL     1      19.067   0.292  51.583  1.00  0.00    +0.029 A 
ATOM     20  C   UNL     1      17.795  -0.294  51.569  1.00  0.00    +0.074 A 
ATOM     21  C   UNL     1      19.295   1.228  50.557  1.00  0.00    +0.082 A 
ATOM     22  N   UNL     1      16.854   0.027  50.674  1.00  0.00    -0.236 NA
ATOM     23  N   UNL     1      18.348   1.578  49.656  1.00  0.00    -0.236 NA
ATOM     24  C   UNL     1      17.173   0.953  49.764  1.00  0.00    +0.223 A 
BRANCH  21  25
ATOM     25  C   UNL     1      20.581   1.917  50.340  1.00  0.00    +0.008 A 
ATOM     26  C   UNL     1      21.494   1.476  49.360  1.00  0.00    +0.015 A 
ATOM     27  C   UNL     1      20.909   3.062  51.082  1.00  0.00    +0.100 A 
ATOM     28  C   UNL     1      22.712   2.134  49.144  1.00  0.00    +0.054 A 
ATOM     29  C   UNL     1      22.129   3.709  50.856  1.00  0.00    +0.311 A 
ATOM     30  C   UNL     1      23.035   3.258  49.898  1.00  0.00    +0.194 A 
BRANCH  29  31
ATOM     31  N   UNL     1      22.439   4.874  51.655  1.00  0.00    +0.066 N 
ATOM     32  O   UNL     1      23.367   4.771  52.471  1.00  0.00    -0.258 OA
ATOM     33  O   UNL     1      21.714   5.868  51.499  1.00  0.00    -0.258 OA
ENDBRANCH  29  31
BRANCH  30  34
ATOM     34  O   UNL     1      24.209   3.913  49.680  1.00  0.00    -0.502 OA
ATOM     35  H   UNL     1      24.912   3.279  49.464  1.00  0.00    +0.293 HD
ENDBRANCH  30  34
ENDBRANCH  21  25
ENDBRANCH  13  15
ENDBRANCH   2  13
TORSDOF 9
ENDMDL
MODEL 9
REMARK VINA RESULT:    -8.181      2.150      3.030
REMARK INTER + INTRA:         -13.592
REMARK INTER:                 -11.456
REMARK INTRA:                  -2.135
REMARK UNBOUND:                -1.346
REMARK SMILES CN(CC/N=N/Nc1ccc2ncnc(-c3ccc(O)c([N+](=O)[O-])c3)c2c1)c1ccccn1
REMARK SMILES IDX 5 1 6 2 4 3 3 4 2 5 1 6 28 7 29 8 33 9 30 10 32 11 31 12
REMARK SMILES IDX 7 13 8 15 9 16 27 17 10 18 26 19 11 20 15 21 12 22 14 23
REMARK SMILES IDX 13 24 16 25 17 26 25 27 18 28 21 29 19 30 22 31 23 32 24 33
REMARK SMILES IDX 20 34
REMARK H PARENT 7 14 20 35
ROOT
ATOM      1  N   UNL     1      22.631   4.187  47.688  1.00  0.00    -0.169 NA
ATOM      2  N   UNL     1      21.722   3.348  47.810  1.00  0.00    -0.075 NA
ENDROOT
BRANCH   1   3
ATOM      3  C   UNL     1      22.122   5.513  47.288  1.00  0.00    +0.190 C 
BRANCH   3   4
ATOM      4  C   UNL     1      21.012   5.979  48.239  1.00  0.00    +0.143 C 
BRANCH   4   5
ATOM      5  N   UNL     1      21.571   6.696  49.399  1.00  0.00    -0.358 N 
ATOM      6  C   UNL     1      20.916   7.959  49.738  1.00  0.00    +0.145 C 
BRANCH   5   7
ATOM      7  C   UNL     1      21.920   5.917  50.511  1.00  0.00    +0.128 A 
ATOM      8  C   UNL     1      21.011   5.000  51.049  1.00  0.00    +0.047 A 
ATOM      9  N   UNL     1      23.160   6.030  51.038  1.00  0.00    -0.239 NA
ATOM     10  C   UNL     1      21.363   4.226  52.155  1.00  0.00    +0.005 A 
ATOM     11  C   UNL     1      23.486   5.267  52.106  1.00  0.00    +0.113 A 
ATOM     12  C   UNL     1      22.629   4.364  52.700  1.00  0.00    +0.020 A 
ENDBRANCH   5   7
ENDBRANCH   4   5
ENDBRANCH   3   4
ENDBRANCH   1   3
BRANCH   2  13
ATOM     13  N   UNL     1      22.325   2.216  48.216  1.00  0.00    -0.260 N 
ATOM     14  H   UNL     1      22.620   1.601  47.465  1.00  0.00    +0.192 HD
BRANCH  13  15
ATOM     15  C   UNL     1      21.884   1.592  49.393  1.00  0.00    +0.059 A 
ATOM     16  C   UNL     1      20.541   1.308  49.640  1.00  0.00    +0.030 A 
ATOM     17  C   UNL     1      22.794   1.355  50.429  1.00  0.00    +0.040 A 
ATOM     18  C   UNL     1      20.140   0.741  50.856  1.00  0.00    +0.031 A 
ATOM     19  C   UNL     1      22.388   0.802  51.677  1.00  0.00    +0.029 A 
ATOM     20  C   UNL     1      21.042   0.474  51.876  1.00  0.00    +0.074 A 
ATOM     21  C   UNL     1      23.228   0.532  52.775  1.00  0.00    +0.082 A 
ATOM     22  N   UNL     1      20.585  -0.080  53.005  1.00  0.00    -0.236 NA
ATOM     23  N   UNL     1      22.786  -0.045  53.915  1.00  0.00    -0.236 NA
ATOM     24  C   UNL     1      21.480  -0.321  53.968  1.00  0.00    +0.223 A 
BRANCH  21  25
ATOM     25  C   UNL     1      24.666   0.857  52.812  1.00  0.00    +0.008 A 
ATOM     26  C   UNL     1      25.221   1.831  51.955  1.00  0.00    +0.015 A 
ATOM     27  C   UNL     1      25.514   0.230  53.736  1.00  0.00    +0.100 A 
ATOM     28  C   UNL     1      26.584   2.151  51.994  1.00  0.00    +0.054 A 
ATOM     29  C   UNL     1      26.874   0.559  53.765  1.00  0.00    +0.311 A 
ATOM     30  C   UNL     1      27.419   1.510  52.904  1.00  0.00    +0.194 A 
BRANCH  29  31
ATOM     31  N   UNL     1      27.718  -0.124  54.719  1.00  0.00    +0.066 N 
ATOM     32  O   UNL     1      27.515   0.104  55.921  1.00  0.00    -0.258 OA
ATOM     33  O   UNL     1      28.618  -0.842  54.258  1.00  0.00    -0.258 OA
ENDBRANCH  29  31
BRANCH  30  34
ATOM     34  O   UNL     1      28.743   1.828  52.960  1.00  0.00    -0.502 OA
ATOM     35  H   UNL     1      29.109   1.589  53.827  1.00  0.00    +0.293 HD
ENDBRANCH  30  34
ENDBRANCH  21  25
ENDBRANCH  13  15
ENDBRANCH   2  13
TORSDOF 9
ENDMDL
