REMARK SMILES Fc1ccc(-c2ccccc2)cc1Cl
REMARK SMILES IDX 1 1 2 2 3 3 4 4 5 5 12 6 13 7 14 8 6 9 7 10 11 11 8 12 10 13
REMARK SMILES IDX 9 14
REMARK H PARENT
ROOT
ATOM      1  F   UNL     1       4.836   0.389  -0.341  1.00  0.00    -0.205 F 
ATOM      2  C   UNL     1       3.504   0.276  -0.239  1.00  0.00    +0.141 A 
ATOM      3  C   UNL     1       2.707   0.859  -1.217  1.00  0.00    +0.041 A 
ATOM      4  C   UNL     1       1.316   0.753  -1.129  1.00  0.00    +0.012 A 
ATOM      5  C   UNL     1       0.707   0.065  -0.064  1.00  0.00    -0.017 A 
ATOM      6  C   UNL     1       1.536  -0.516   0.913  1.00  0.00    +0.032 A 
ATOM      7  C   UNL     1       2.926  -0.410   0.825  1.00  0.00    +0.077 A 
ATOM      8 Cl   UNL     1       3.908  -1.136   2.039  1.00  0.00    -0.081 Cl
ENDROOT
BRANCH   5   9
ATOM      9  C   UNL     1      -0.759  -0.044   0.026  1.00  0.00    -0.018 A 
ATOM     10  C   UNL     1      -1.444   0.349   1.188  1.00  0.00    +0.009 A 
ATOM     11  C   UNL     1      -1.515  -0.545  -1.046  1.00  0.00    +0.009 A 
ATOM     12  C   UNL     1      -2.835   0.246   1.275  1.00  0.00    +0.001 A 
ATOM     13  C   UNL     1      -2.906  -0.650  -0.961  1.00  0.00    +0.001 A 
ATOM     14  C   UNL     1      -3.565  -0.254   0.200  1.00  0.00    +0.000 A 
ENDBRANCH   5   9
TORSDOF 1
