MODEL 1
REMARK VINA RESULT:    -7.597      0.000      0.000
REMARK INTER + INTRA:          -9.331
REMARK INTER:                  -8.707
REMARK INTRA:                  -0.623
REMARK UNBOUND:                -0.623
REMARK SMILES Cc1cccc(-c2ccc(O)c([N+](=O)[O-])c2)c1
REMARK SMILES IDX 7 1 8 2 9 3 10 4 12 5 16 6 6 7 2 8 3 9 17 10 4 11 5 12 1 13
REMARK SMILES IDX 13 14 14 15 15 16 11 17
REMARK H PARENT 11 18
ROOT
ATOM      1  C   UNL     1      24.679   0.451  53.310  1.00  0.00    -0.011 A 
ATOM      2  C   UNL     1      25.045   1.308  52.260  1.00  0.00    +0.013 A 
ATOM      3  C   UNL     1      26.357   1.773  52.125  1.00  0.00    +0.054 A 
ATOM      4  C   UNL     1      27.334   1.390  53.040  1.00  0.00    +0.194 A 
ATOM      5  C   UNL     1      26.992   0.535  54.093  1.00  0.00    +0.311 A 
ATOM      6  C   UNL     1      25.672   0.069  54.228  1.00  0.00    +0.098 A 
ENDROOT
BRANCH   1   7
ATOM      7  C   UNL     1      23.295  -0.032  53.447  1.00  0.00    -0.018 A 
ATOM      8  C   UNL     1      20.979  -0.108  52.648  1.00  0.00    -0.051 A 
ATOM      9  C   UNL     1      20.644  -0.952  53.711  1.00  0.00    +0.003 A 
ATOM     10  C   UNL     1      22.298   0.354  52.532  1.00  0.00    +0.012 A 
ATOM     11  C   UNL     1      21.616  -1.347  54.627  1.00  0.00    +0.001 A 
ATOM     12  C   UNL     1      22.930  -0.892  54.495  1.00  0.00    +0.009 A 
ATOM     13  C   UNL     1      19.928   0.348  51.679  1.00  0.00    +0.044 C 
ENDBRANCH   1   7
BRANCH   5  14
ATOM     14  N   UNL     1      27.993   0.108  55.073  1.00  0.00    +0.066 N 
ATOM     15  O   UNL     1      29.133  -0.159  54.668  1.00  0.00    -0.258 OA
ATOM     16  O   UNL     1      27.638   0.043  56.262  1.00  0.00    -0.258 OA
ENDBRANCH   5  14
BRANCH   4  17
ATOM     17  O   UNL     1      28.581   1.907  52.809  1.00  0.00    -0.502 OA
ATOM     18  H   UNL     1      28.826   1.778  51.869  1.00  0.00    +0.293 HD
ENDBRANCH   4  17
TORSDOF 3
ENDMDL
MODEL 2
REMARK VINA RESULT:    -7.564      1.555      2.372
REMARK INTER + INTRA:          -9.293
REMARK INTER:                  -8.809
REMARK INTRA:                  -0.483
REMARK UNBOUND:                -0.623
REMARK SMILES Cc1cccc(-c2ccc(O)c([N+](=O)[O-])c2)c1
REMARK SMILES IDX 7 1 8 2 9 3 10 4 12 5 16 6 6 7 2 8 3 9 17 10 4 11 5 12 1 13
REMARK SMILES IDX 13 14 14 15 15 16 11 17
REMARK H PARENT 11 18
ROOT
ATOM      1  C   UNL     1      25.820   0.619  53.140  1.00  0.00    -0.011 A 
ATOM      2  C   UNL     1      26.369   1.903  53.289  1.00  0.00    +0.013 A 
ATOM      3  C   UNL     1      27.742   2.087  53.484  1.00  0.00    +0.054 A 
ATOM      4  C   UNL     1      28.597   0.989  53.533  1.00  0.00    +0.194 A 
ATOM      5  C   UNL     1      28.071  -0.299  53.385  1.00  0.00    +0.311 A 
ATOM      6  C   UNL     1      26.690  -0.483  53.190  1.00  0.00    +0.098 A 
ENDROOT
BRANCH   1   7
ATOM      7  C   UNL     1      24.373   0.433  52.938  1.00  0.00    -0.018 A 
ATOM      8  C   UNL     1      22.261  -0.652  53.548  1.00  0.00    -0.051 A 
ATOM      9  C   UNL     1      21.605   0.073  52.549  1.00  0.00    +0.003 A 
ATOM     10  C   UNL     1      23.642  -0.474  53.726  1.00  0.00    +0.012 A 
ATOM     11  C   UNL     1      22.311   0.977  51.758  1.00  0.00    +0.001 A 
ATOM     12  C   UNL     1      23.682   1.156  51.953  1.00  0.00    +0.009 A 
ATOM     13  C   UNL     1      21.513  -1.653  54.378  1.00  0.00    +0.044 C 
ENDBRANCH   1   7
BRANCH   5  14
ATOM     14  N   UNL     1      28.938  -1.477  53.429  1.00  0.00    +0.066 N 
ATOM     15  O   UNL     1      30.113  -1.327  53.794  1.00  0.00    -0.258 OA
ATOM     16  O   UNL     1      28.441  -2.567  53.099  1.00  0.00    -0.258 OA
ENDBRANCH   5  14
BRANCH   4  17
ATOM     17  O   UNL     1      29.918   1.290  53.729  1.00  0.00    -0.502 OA
ATOM     18  H   UNL     1      30.046   1.658  54.629  1.00  0.00    +0.293 HD
ENDBRANCH   4  17
TORSDOF 3
ENDMDL
MODEL 3
REMARK VINA RESULT:    -7.389      2.011      4.453
REMARK INTER + INTRA:          -9.093
REMARK INTER:                  -8.452
REMARK INTRA:                  -0.640
REMARK UNBOUND:                -0.623
REMARK SMILES Cc1cccc(-c2ccc(O)c([N+](=O)[O-])c2)c1
REMARK SMILES IDX 7 1 8 2 9 3 10 4 12 5 16 6 6 7 2 8 3 9 17 10 4 11 5 12 1 13
REMARK SMILES IDX 13 14 14 15 15 16 11 17
REMARK H PARENT 11 18
ROOT
ATOM      1  C   UNL     1      24.774   0.887  52.746  1.00  0.00    -0.011 A 
ATOM      2  C   UNL     1      23.695   0.097  53.175  1.00  0.00    +0.013 A 
ATOM      3  C   UNL     1      23.806  -0.741  54.289  1.00  0.00    +0.054 A 
ATOM      4  C   UNL     1      25.001  -0.808  55.000  1.00  0.00    +0.194 A 
ATOM      5  C   UNL     1      26.089  -0.028  54.591  1.00  0.00    +0.311 A 
ATOM      6  C   UNL     1      25.976   0.814  53.470  1.00  0.00    +0.098 A 
ENDROOT
BRANCH   1   7
ATOM      7  C   UNL     1      24.650   1.766  51.571  1.00  0.00    -0.018 A 
ATOM      8  C   UNL     1      25.667   3.252  49.909  1.00  0.00    -0.051 A 
ATOM      9  C   UNL     1      24.413   3.450  49.324  1.00  0.00    +0.003 A 
ATOM     10  C   UNL     1      25.772   2.422  51.034  1.00  0.00    +0.012 A 
ATOM     11  C   UNL     1      23.288   2.809  49.840  1.00  0.00    +0.001 A 
ATOM     12  C   UNL     1      23.407   1.973  50.952  1.00  0.00    +0.009 A 
ATOM     13  C   UNL     1      26.874   3.969  49.379  1.00  0.00    +0.044 C 
ENDBRANCH   1   7
BRANCH   5  14
ATOM     14  N   UNL     1      27.361  -0.069  55.315  1.00  0.00    +0.066 N 
ATOM     15  O   UNL     1      27.343   0.103  56.541  1.00  0.00    -0.258 OA
ATOM     16  O   UNL     1      28.390  -0.281  54.652  1.00  0.00    -0.258 OA
ENDBRANCH   5  14
BRANCH   4  17
ATOM     17  O   UNL     1      24.995  -1.662  56.070  1.00  0.00    -0.502 OA
ATOM     18  H   UNL     1      25.915  -1.884  56.325  1.00  0.00    +0.293 HD
ENDBRANCH   4  17
TORSDOF 3
ENDMDL
MODEL 4
REMARK VINA RESULT:    -7.379      1.474      2.637
REMARK INTER + INTRA:          -9.081
REMARK INTER:                  -8.502
REMARK INTRA:                  -0.580
REMARK UNBOUND:                -0.623
REMARK SMILES Cc1cccc(-c2ccc(O)c([N+](=O)[O-])c2)c1
REMARK SMILES IDX 7 1 8 2 9 3 10 4 12 5 16 6 6 7 2 8 3 9 17 10 4 11 5 12 1 13
REMARK SMILES IDX 13 14 14 15 15 16 11 17
REMARK H PARENT 11 18
ROOT
ATOM      1  C   UNL     1      25.761  -0.027  53.277  1.00  0.00    -0.011 A 
ATOM      2  C   UNL     1      26.305  -1.299  53.041  1.00  0.00    +0.013 A 
ATOM      3  C   UNL     1      27.686  -1.517  53.081  1.00  0.00    +0.054 A 
ATOM      4  C   UNL     1      28.555  -0.465  53.357  1.00  0.00    +0.194 A 
ATOM      5  C   UNL     1      28.034   0.812  53.596  1.00  0.00    +0.311 A 
ATOM      6  C   UNL     1      26.645   1.029  53.556  1.00  0.00    +0.098 A 
ENDROOT
BRANCH   1   7
ATOM      7  C   UNL     1      24.306   0.195  53.232  1.00  0.00    -0.018 A 
ATOM      8  C   UNL     1      22.027  -0.511  53.796  1.00  0.00    -0.051 A 
ATOM      9  C   UNL     1      21.521   0.617  53.142  1.00  0.00    +0.003 A 
ATOM     10  C   UNL     1      23.414  -0.718  53.824  1.00  0.00    +0.012 A 
ATOM     11  C   UNL     1      22.387   1.533  52.550  1.00  0.00    +0.001 A 
ATOM     12  C   UNL     1      23.767   1.325  52.597  1.00  0.00    +0.009 A 
ATOM     13  C   UNL     1      21.097  -1.519  54.403  1.00  0.00    +0.044 C 
ENDBRANCH   1   7
BRANCH   5  14
ATOM     14  N   UNL     1      28.915   1.942  53.893  1.00  0.00    +0.066 N 
ATOM     15  O   UNL     1      29.554   1.925  54.955  1.00  0.00    -0.258 OA
ATOM     16  O   UNL     1      28.975   2.857  53.054  1.00  0.00    -0.258 OA
ENDBRANCH   5  14
BRANCH   4  17
ATOM     17  O   UNL     1      29.883  -0.795  53.367  1.00  0.00    -0.502 OA
ATOM     18  H   UNL     1      30.206  -0.907  52.448  1.00  0.00    +0.293 HD
ENDBRANCH   4  17
TORSDOF 3
ENDMDL
MODEL 5
REMARK VINA RESULT:    -7.357      3.461      6.013
REMARK INTER + INTRA:          -9.055
REMARK INTER:                  -8.605
REMARK INTRA:                  -0.450
REMARK UNBOUND:                -0.623
REMARK SMILES Cc1cccc(-c2ccc(O)c([N+](=O)[O-])c2)c1
REMARK SMILES IDX 7 1 8 2 9 3 10 4 12 5 16 6 6 7 2 8 3 9 17 10 4 11 5 12 1 13
REMARK SMILES IDX 13 14 14 15 15 16 11 17
REMARK H PARENT 11 18
ROOT
ATOM      1  C   UNL     1      24.901   0.410  53.175  1.00  0.00    -0.011 A 
ATOM      2  C   UNL     1      24.174   1.075  52.173  1.00  0.00    +0.013 A 
ATOM      3  C   UNL     1      22.794   0.892  52.034  1.00  0.00    +0.054 A 
ATOM      4  C   UNL     1      22.110   0.038  52.896  1.00  0.00    +0.194 A 
ATOM      5  C   UNL     1      22.814  -0.633  53.901  1.00  0.00    +0.311 A 
ATOM      6  C   UNL     1      24.201  -0.449  54.040  1.00  0.00    +0.098 A 
ENDROOT
BRANCH   1   7
ATOM      7  C   UNL     1      26.353   0.606  53.313  1.00  0.00    -0.018 A 
ATOM      8  C   UNL     1      28.620  -0.315  53.460  1.00  0.00    -0.051 A 
ATOM      9  C   UNL     1      29.134   0.980  53.582  1.00  0.00    +0.003 A 
ATOM     10  C   UNL     1      27.234  -0.491  53.339  1.00  0.00    +0.012 A 
ATOM     11  C   UNL     1      28.279   2.080  53.559  1.00  0.00    +0.001 A 
ATOM     12  C   UNL     1      26.901   1.894  53.423  1.00  0.00    +0.009 A 
ATOM     13  C   UNL     1      29.533  -1.504  53.521  1.00  0.00    +0.044 C 
ENDBRANCH   1   7
BRANCH   5  14
ATOM     14  N   UNL     1      22.128  -1.536  54.827  1.00  0.00    +0.066 N 
ATOM     15  O   UNL     1      22.768  -1.989  55.787  1.00  0.00    -0.258 OA
ATOM     16  O   UNL     1      20.935  -1.795  54.597  1.00  0.00    -0.258 OA
ENDBRANCH   5  14
BRANCH   4  17
ATOM     17  O   UNL     1      20.764  -0.064  52.665  1.00  0.00    -0.502 OA
ATOM     18  H   UNL     1      20.593  -0.094  51.700  1.00  0.00    +0.293 HD
ENDBRANCH   4  17
TORSDOF 3
ENDMDL
MODEL 6
REMARK VINA RESULT:    -7.126      1.931      3.674
REMARK INTER + INTRA:          -8.790
REMARK INTER:                  -8.185
REMARK INTRA:                  -0.605
REMARK UNBOUND:                -0.623
REMARK SMILES Cc1cccc(-c2ccc(O)c([N+](=O)[O-])c2)c1
REMARK SMILES IDX 7 1 8 2 9 3 10 4 12 5 16 6 6 7 2 8 3 9 17 10 4 11 5 12 1 13
REMARK SMILES IDX 13 14 14 15 15 16 11 17
REMARK H PARENT 11 18
ROOT
ATOM      1  C   UNL     1      23.212   0.033  53.104  1.00  0.00    -0.011 A 
ATOM      2  C   UNL     1      22.489  -0.658  54.090  1.00  0.00    +0.013 A 
ATOM      3  C   UNL     1      23.121  -1.178  55.223  1.00  0.00    +0.054 A 
ATOM      4  C   UNL     1      24.494  -1.020  55.395  1.00  0.00    +0.194 A 
ATOM      5  C   UNL     1      25.234  -0.334  54.426  1.00  0.00    +0.311 A 
ATOM      6  C   UNL     1      24.596   0.189  53.286  1.00  0.00    +0.098 A 
ENDROOT
BRANCH   1   7
ATOM      7  C   UNL     1      22.539   0.577  51.912  1.00  0.00    -0.018 A 
ATOM      8  C   UNL     1      22.568   1.995  49.913  1.00  0.00    -0.051 A 
ATOM      9  C   UNL     1      21.250   1.622  49.634  1.00  0.00    +0.003 A 
ATOM     10  C   UNL     1      23.196   1.479  51.056  1.00  0.00    +0.012 A 
ATOM     11  C   UNL     1      20.581   0.729  50.469  1.00  0.00    +0.001 A 
ATOM     12  C   UNL     1      21.221   0.211  51.596  1.00  0.00    +0.009 A 
ATOM     13  C   UNL     1      23.280   2.984  49.037  1.00  0.00    +0.044 C 
ENDBRANCH   1   7
BRANCH   5  14
ATOM     14  N   UNL     1      26.678  -0.144  54.573  1.00  0.00    +0.066 N 
ATOM     15  O   UNL     1      27.084   0.576  55.496  1.00  0.00    -0.258 OA
ATOM     16  O   UNL     1      27.417  -0.726  53.761  1.00  0.00    -0.258 OA
ENDBRANCH   5  14
BRANCH   4  17
ATOM     17  O   UNL     1      25.004  -1.572  56.539  1.00  0.00    -0.502 OA
ATOM     18  H   UNL     1      25.184  -0.868  57.198  1.00  0.00    +0.293 HD
ENDBRANCH   4  17
TORSDOF 3
ENDMDL
MODEL 7
REMARK VINA RESULT:    -7.080      2.098      3.853
REMARK INTER + INTRA:          -8.739
REMARK INTER:                  -8.110
REMARK INTRA:                  -0.629
REMARK UNBOUND:                -0.623
REMARK SMILES Cc1cccc(-c2ccc(O)c([N+](=O)[O-])c2)c1
REMARK SMILES IDX 7 1 8 2 9 3 10 4 12 5 16 6 6 7 2 8 3 9 17 10 4 11 5 12 1 13
REMARK SMILES IDX 13 14 14 15 15 16 11 17
REMARK H PARENT 11 18
ROOT
ATOM      1  C   UNL     1      24.212   0.685  52.741  1.00  0.00    -0.011 A 
ATOM      2  C   UNL     1      23.181  -0.084  53.306  1.00  0.00    +0.013 A 
ATOM      3  C   UNL     1      23.403  -0.877  54.436  1.00  0.00    +0.054 A 
ATOM      4  C   UNL     1      24.663  -0.919  55.028  1.00  0.00    +0.194 A 
ATOM      5  C   UNL     1      25.704  -0.160  54.482  1.00  0.00    +0.311 A 
ATOM      6  C   UNL     1      25.480   0.637  53.345  1.00  0.00    +0.098 A 
ENDROOT
BRANCH   1   7
ATOM      7  C   UNL     1      23.972   1.516  51.549  1.00  0.00    -0.018 A 
ATOM      8  C   UNL     1      22.553   2.164  49.658  1.00  0.00    -0.051 A 
ATOM      9  C   UNL     1      23.512   3.102  49.266  1.00  0.00    +0.003 A 
ATOM     10  C   UNL     1      22.797   1.370  50.789  1.00  0.00    +0.012 A 
ATOM     11  C   UNL     1      24.682   3.262  50.005  1.00  0.00    +0.001 A 
ATOM     12  C   UNL     1      24.908   2.477  51.138  1.00  0.00    +0.009 A 
ATOM     13  C   UNL     1      21.309   1.962  48.844  1.00  0.00    +0.044 C 
ENDBRANCH   1   7
BRANCH   5  14
ATOM     14  N   UNL     1      27.041  -0.176  55.078  1.00  0.00    +0.066 N 
ATOM     15  O   UNL     1      28.004  -0.457  54.351  1.00  0.00    -0.258 OA
ATOM     16  O   UNL     1      27.132   0.100  56.287  1.00  0.00    -0.258 OA
ENDBRANCH   5  14
BRANCH   4  17
ATOM     17  O   UNL     1      24.762  -1.730  56.126  1.00  0.00    -0.502 OA
ATOM     18  H   UNL     1      25.607  -1.556  56.593  1.00  0.00    +0.293 HD
ENDBRANCH   4  17
TORSDOF 3
ENDMDL
MODEL 8
REMARK VINA RESULT:    -7.077      1.384      2.923
REMARK INTER + INTRA:          -8.735
REMARK INTER:                  -8.112
REMARK INTRA:                  -0.623
REMARK UNBOUND:                -0.623
REMARK SMILES Cc1cccc(-c2ccc(O)c([N+](=O)[O-])c2)c1
REMARK SMILES IDX 7 1 8 2 9 3 10 4 12 5 16 6 6 7 2 8 3 9 17 10 4 11 5 12 1 13
REMARK SMILES IDX 13 14 14 15 15 16 11 17
REMARK H PARENT 11 18
ROOT
ATOM      1  C   UNL     1      24.022   0.525  52.962  1.00  0.00    -0.011 A 
ATOM      2  C   UNL     1      24.147  -0.495  53.919  1.00  0.00    +0.013 A 
ATOM      3  C   UNL     1      25.320  -0.655  54.663  1.00  0.00    +0.054 A 
ATOM      4  C   UNL     1      26.398   0.205  54.465  1.00  0.00    +0.194 A 
ATOM      5  C   UNL     1      26.295   1.229  53.518  1.00  0.00    +0.311 A 
ATOM      6  C   UNL     1      25.115   1.388  52.770  1.00  0.00    +0.098 A 
ENDROOT
BRANCH   1   7
ATOM      7  C   UNL     1      22.784   0.686  52.182  1.00  0.00    -0.018 A 
ATOM      8  C   UNL     1      20.377   0.313  51.911  1.00  0.00    -0.051 A 
ATOM      9  C   UNL     1      20.415   0.987  50.686  1.00  0.00    +0.003 A 
ATOM     10  C   UNL     1      21.564   0.157  52.641  1.00  0.00    +0.012 A 
ATOM     11  C   UNL     1      21.613   1.518  50.213  1.00  0.00    +0.001 A 
ATOM     12  C   UNL     1      22.786   1.369  50.956  1.00  0.00    +0.009 A 
ATOM     13  C   UNL     1      19.096  -0.291  52.407  1.00  0.00    +0.044 C 
ENDBRANCH   1   7
BRANCH   5  14
ATOM     14  N   UNL     1      27.406   2.154  53.284  1.00  0.00    +0.066 N 
ATOM     15  O   UNL     1      28.012   2.603  54.267  1.00  0.00    -0.258 OA
ATOM     16  O   UNL     1      27.681   2.433  52.105  1.00  0.00    -0.258 OA
ENDBRANCH   5  14
BRANCH   4  17
ATOM     17  O   UNL     1      27.493  -0.047  55.247  1.00  0.00    -0.502 OA
ATOM     18  H   UNL     1      27.334  -0.842  55.798  1.00  0.00    +0.293 HD
ENDBRANCH   4  17
TORSDOF 3
ENDMDL
MODEL 9
REMARK VINA RESULT:    -7.033      4.462      6.496
REMARK INTER + INTRA:          -8.684
REMARK INTER:                  -8.043
REMARK INTRA:                  -0.641
REMARK UNBOUND:                -0.623
REMARK SMILES Cc1cccc(-c2ccc(O)c([N+](=O)[O-])c2)c1
REMARK SMILES IDX 7 1 8 2 9 3 10 4 12 5 16 6 6 7 2 8 3 9 17 10 4 11 5 12 1 13
REMARK SMILES IDX 13 14 14 15 15 16 11 17
REMARK H PARENT 11 18
ROOT
ATOM      1  C   UNL     1      23.009  -0.041  53.307  1.00  0.00    -0.011 A 
ATOM      2  C   UNL     1      22.531  -1.150  54.025  1.00  0.00    +0.013 A 
ATOM      3  C   UNL     1      21.164  -1.332  54.254  1.00  0.00    +0.054 A 
ATOM      4  C   UNL     1      20.242  -0.407  53.771  1.00  0.00    +0.194 A 
ATOM      5  C   UNL     1      20.696   0.704  53.052  1.00  0.00    +0.311 A 
ATOM      6  C   UNL     1      22.072   0.886  52.822  1.00  0.00    +0.098 A 
ENDROOT
BRANCH   1   7
ATOM      7  C   UNL     1      24.451   0.144  53.071  1.00  0.00    -0.018 A 
ATOM      8  C   UNL     1      26.294   1.376  52.026  1.00  0.00    -0.051 A 
ATOM      9  C   UNL     1      27.209   0.498  52.615  1.00  0.00    +0.003 A 
ATOM     10  C   UNL     1      24.923   1.184  52.249  1.00  0.00    +0.012 A 
ATOM     11  C   UNL     1      26.762  -0.537  53.432  1.00  0.00    +0.001 A 
ATOM     12  C   UNL     1      25.395  -0.711  53.659  1.00  0.00    +0.009 A 
ATOM     13  C   UNL     1      26.769   2.471  51.116  1.00  0.00    +0.044 C 
ENDBRANCH   1   7
BRANCH   5  14
ATOM     14  N   UNL     1      19.757   1.696  52.525  1.00  0.00    +0.066 N 
ATOM     15  O   UNL     1      18.804   1.297  51.842  1.00  0.00    -0.258 OA
ATOM     16  O   UNL     1      19.971   2.889  52.800  1.00  0.00    -0.258 OA
ENDBRANCH   5  14
BRANCH   4  17
ATOM     17  O   UNL     1      18.933  -0.687  54.057  1.00  0.00    -0.502 OA
ATOM     18  H   UNL     1      18.515  -1.141  53.295  1.00  0.00    +0.293 HD
ENDBRANCH   4  17
TORSDOF 3
ENDMDL
