REMARK SMILES COc1ccc(N2CCN(c3cc(C(=O)O)cc(O)c3O)CC2)[nH]1
REMARK SMILES IDX 7 1 8 2 9 3 10 4 22 5 23 6 6 7 3 8 4 9 24 10 5 11 2 13 1 14
REMARK SMILES IDX 11 15 12 16 20 17 13 18 18 19 17 20 21 21 14 23 15 24 16 25
REMARK SMILES IDX 19 27
REMARK H PARENT 24 12 21 22 16 26 19 28
ROOT
ATOM      1  N   UNL     1       1.617  -0.253   0.292  1.00  0.00    -0.355 N 
ATOM      2  C   UNL     1       0.993   0.272  -0.953  1.00  0.00    +0.139 C 
ATOM      3  C   UNL     1      -0.495   0.635  -0.731  1.00  0.00    +0.138 C 
ATOM      4  N   UNL     1      -1.242  -0.534  -0.195  1.00  0.00    -0.365 N 
ATOM      5  C   UNL     1      -0.642  -0.992   1.087  1.00  0.00    +0.138 C 
ATOM      6  C   UNL     1       0.841  -1.376   0.882  1.00  0.00    +0.139 C 
ENDROOT
BRANCH   1   7
ATOM      7  C   UNL     1       2.982  -0.341   0.341  1.00  0.00    +0.108 A 
ATOM      8  C   UNL     1       5.107   0.395   0.071  1.00  0.00    +0.192 A 
ATOM      9  C   UNL     1       5.168  -0.866   0.628  1.00  0.00    +0.070 A 
ATOM     10  N   UNL     1       3.777   0.698  -0.079  1.00  0.00    -0.313 N 
ATOM     11  C   UNL     1       3.837  -1.318   0.813  1.00  0.00    +0.050 A 
ATOM     12  H   UNL     1       3.444   1.584  -0.421  1.00  0.00    +0.171 HD
BRANCH   8  13
ATOM     13  O   UNL     1       6.010   1.299  -0.307  1.00  0.00    -0.482 OA
ATOM     14  C   UNL     1       7.370   0.928  -0.115  1.00  0.00    +0.280 C 
ENDBRANCH   8  13
ENDBRANCH   1   7
BRANCH   4  15
ATOM     15  C   UNL     1      -2.629  -0.264  -0.068  1.00  0.00    +0.084 A 
ATOM     16  C   UNL     1      -3.166   0.716   0.772  1.00  0.00    +0.045 A 
ATOM     17  C   UNL     1      -3.513  -1.037  -0.842  1.00  0.00    +0.181 A 
ATOM     18  C   UNL     1      -4.556   0.913   0.832  1.00  0.00    +0.065 A 
ATOM     19  C   UNL     1      -4.891  -0.847  -0.786  1.00  0.00    +0.160 A 
ATOM     20  C   UNL     1      -5.420   0.130   0.052  1.00  0.00    +0.066 A 
BRANCH  17  21
ATOM     21  O   UNL     1      -2.966  -1.994  -1.659  1.00  0.00    -0.503 OA
ATOM     22  H   UNL     1      -2.006  -1.902  -1.490  1.00  0.00    +0.293 HD
ENDBRANCH  17  21
BRANCH  18  23
ATOM     23  C   UNL     1      -5.066   1.968   1.740  1.00  0.00    +0.335 C 
ATOM     24  O   UNL     1      -4.386   2.692   2.443  1.00  0.00    -0.246 OA
BRANCH  23  25
ATOM     25  O   UNL     1      -6.407   2.066   1.726  1.00  0.00    -0.478 OA
ATOM     26  H   UNL     1      -6.596   2.789   2.361  1.00  0.00    +0.297 HD
ENDBRANCH  23  25
ENDBRANCH  18  23
BRANCH  19  27
ATOM     27  O   UNL     1      -5.711  -1.622  -1.556  1.00  0.00    -0.504 OA
ATOM     28  H   UNL     1      -6.634  -1.369  -1.402  1.00  0.00    +0.293 HD
ENDBRANCH  19  27
ENDBRANCH   4  15
TORSDOF 7
