REMARK SMILES C[N+](C)(C)C[C@H](O)CO[C@H]1CCCC[C@@H]1c1cnccn1
REMARK SMILES IDX 6 1 5 2 2 3 1 4 3 5 4 6 7 7 8 9 9 10 10 11 11 12 15 13 12 14
REMARK SMILES IDX 14 15 13 16 16 17 17 18 21 19 18 20 20 21 19 22
REMARK H PARENT 7 8
ROOT
ATOM      1  C   UNL     1       2.299  -0.777  -1.492  1.00  0.00    +0.195 C 
ENDROOT
BRANCH   1   2
ATOM      2  C   UNL     1       2.725  -0.955  -0.012  1.00  0.00    +0.297 C 
BRANCH   2   3
ATOM      3  N   UNL     1       2.965   0.313   0.853  1.00  0.00    -0.329 N 
ATOM      4  C   UNL     1       3.761  -0.123   2.088  1.00  0.00    +0.334 C 
ATOM      5  C   UNL     1       1.655   0.912   1.343  1.00  0.00    +0.334 C 
ATOM      6  C   UNL     1       3.776   1.371   0.121  1.00  0.00    +0.334 C 
ENDBRANCH   2   3
ENDBRANCH   1   2
BRANCH   1   7
ATOM      7  O   UNL     1       3.309  -0.084  -2.232  1.00  0.00    -0.385 OA
ATOM      8  H   UNL     1       3.127  -0.216  -3.183  1.00  0.00    +0.211 HD
ENDBRANCH   1   7
BRANCH   1   9
ATOM      9  C   UNL     1       0.926  -0.151  -1.738  1.00  0.00    +0.198 C 
BRANCH   9  10
ATOM     10  O   UNL     1      -0.051  -0.766  -0.900  1.00  0.00    -0.375 OA
BRANCH  10  11
ATOM     11  C   UNL     1      -1.394  -0.312  -1.193  1.00  0.00    +0.127 C 
ATOM     12  C   UNL     1      -1.979  -1.124  -2.368  1.00  0.00    +0.033 C 
ATOM     13  C   UNL     1      -2.232  -0.464   0.102  1.00  0.00    +0.069 C 
ATOM     14  C   UNL     1      -2.853  -2.283  -1.899  1.00  0.00    +0.003 C 
ATOM     15  C   UNL     1      -3.725  -0.559  -0.223  1.00  0.00    +0.013 C 
ATOM     16  C   UNL     1      -4.038  -1.799  -1.063  1.00  0.00    +0.001 C 
BRANCH  13  17
ATOM     17  C   UNL     1      -1.970   0.670   1.071  1.00  0.00    +0.064 A 
ATOM     18  C   UNL     1      -1.740   0.408   2.418  1.00  0.00    +0.135 A 
ATOM     19  N   UNL     1      -1.979   1.945   0.603  1.00  0.00    -0.258 NA
ATOM     20  N   UNL     1      -1.475   1.382   3.321  1.00  0.00    -0.261 NA
ATOM     21  C   UNL     1      -1.794   2.923   1.521  1.00  0.00    +0.131 A 
ATOM     22  C   UNL     1      -1.544   2.647   2.851  1.00  0.00    +0.131 A 
ENDBRANCH  13  17
ENDBRANCH  10  11
ENDBRANCH   9  10
ENDBRANCH   1   9
TORSDOF 7
