REMARK SMILES Nc1ccc2ncnc(-c3ccccc3)c2c1
REMARK SMILES IDX 2 1 3 2 4 3 5 4 6 5 7 6 8 7 9 8 16 9 17 10 1 11 10 14 11 15
REMARK SMILES IDX 15 16 12 17 14 18 13 19
REMARK H PARENT 1 12 1 13
ROOT
ATOM      1  C   UNL     1      -2.640  -0.996   0.367  1.00  0.00    +0.032 A 
ATOM      2  C   UNL     1      -3.571   0.036   0.328  1.00  0.00    +0.028 A 
ATOM      3  C   UNL     1      -3.152   1.368   0.240  1.00  0.00    +0.031 A 
ATOM      4  C   UNL     1      -1.810   1.711   0.151  1.00  0.00    +0.074 A 
ATOM      5  N   UNL     1      -1.486   3.005   0.060  1.00  0.00    -0.236 NA
ATOM      6  C   UNL     1      -0.184   3.296  -0.054  1.00  0.00    +0.223 A 
ATOM      7  N   UNL     1       0.820   2.417  -0.079  1.00  0.00    -0.236 NA
ATOM      8  C   UNL     1       0.474   1.115   0.031  1.00  0.00    +0.081 A 
ATOM      9  C   UNL     1      -0.860   0.683   0.142  1.00  0.00    +0.029 A 
ATOM     10  C   UNL     1      -1.292  -0.669   0.221  1.00  0.00    +0.038 A 
ENDROOT
BRANCH   1  11
ATOM     11  N   UNL     1      -3.055  -2.328   0.323  1.00  0.00    -0.399 N 
ATOM     12  H   UNL     1      -2.364  -2.995   0.650  1.00  0.00    +0.156 HD
ATOM     13  H   UNL     1      -3.972  -2.494   0.728  1.00  0.00    +0.156 HD
ENDBRANCH   1  11
BRANCH   8  14
ATOM     14  C   UNL     1       1.625   0.197   0.030  1.00  0.00    +0.001 A 
ATOM     15  C   UNL     1       2.408   0.036  -1.124  1.00  0.00    +0.010 A 
ATOM     16  C   UNL     1       1.982  -0.525   1.183  1.00  0.00    +0.010 A 
ATOM     17  C   UNL     1       3.499  -0.836  -1.135  1.00  0.00    +0.001 A 
ATOM     18  C   UNL     1       3.074  -1.396   1.173  1.00  0.00    +0.001 A 
ATOM     19  C   UNL     1       3.829  -1.554   0.013  1.00  0.00    +0.000 A 
ENDBRANCH   8  14
TORSDOF 2
