REMARK SMILES Fc1ccc(C/N=N/Nc2ccc3ncnc(-c4ccccc4)c3c2)cc1Cl
REMARK SMILES IDX 7 1 8 2 6 3 5 4 2 5 3 6 27 7 4 8 26 9 1 10 28 11 9 12 10 14
REMARK SMILES IDX 11 15 25 16 12 17 24 18 13 19 17 20 14 21 16 22 15 23 18 24
REMARK SMILES IDX 19 25 23 26 20 27 22 28 21 29
REMARK H PARENT 9 13
ROOT
ATOM      1  N   UNL     1       2.359  -0.946   1.435  1.00  0.00    -0.166 NA
ATOM      2  N   UNL     1       1.965  -0.919   0.255  1.00  0.00    -0.074 NA
ENDROOT
BRANCH   1   3
ATOM      3  C   UNL     1       3.688  -1.566   1.565  1.00  0.00    +0.204 C 
BRANCH   3   4
ATOM      4  C   UNL     1       4.798  -0.541   1.538  1.00  0.00    -0.023 A 
ATOM      5  C   UNL     1       6.817   1.396   1.477  1.00  0.00    +0.141 A 
ATOM      6  C   UNL     1       6.679   0.509   0.414  1.00  0.00    +0.041 A 
ATOM      7  C   UNL     1       5.957   1.327   2.571  1.00  0.00    +0.077 A 
ATOM      8  C   UNL     1       5.670  -0.457   0.442  1.00  0.00    +0.009 A 
ATOM      9  C   UNL     1       4.949   0.363   2.603  1.00  0.00    +0.029 A 
ATOM     10  F   UNL     1       7.792   2.315   1.426  1.00  0.00    -0.205 F 
ATOM     11 Cl   UNL     1       6.122   2.419   3.890  1.00  0.00    -0.081 Cl
ENDBRANCH   3   4
ENDBRANCH   1   3
BRANCH   2  12
ATOM     12  N   UNL     1       0.767  -0.307   0.286  1.00  0.00    -0.260 N 
ATOM     13  H   UNL     1       0.341  -0.251   1.204  1.00  0.00    +0.192 HD
BRANCH  12  14
ATOM     14  C   UNL     1      -0.121  -0.483  -0.789  1.00  0.00    +0.059 A 
ATOM     15  C   UNL     1       0.285  -0.958  -2.035  1.00  0.00    +0.030 A 
ATOM     16  C   UNL     1      -1.449  -0.063  -0.657  1.00  0.00    +0.040 A 
ATOM     17  C   UNL     1      -0.627  -1.063  -3.093  1.00  0.00    +0.031 A 
ATOM     18  C   UNL     1      -2.376  -0.159  -1.732  1.00  0.00    +0.029 A 
ATOM     19  C   UNL     1      -1.954  -0.680  -2.960  1.00  0.00    +0.074 A 
ATOM     20  C   UNL     1      -3.730   0.220  -1.687  1.00  0.00    +0.081 A 
ATOM     21  N   UNL     1      -2.768  -0.818  -4.012  1.00  0.00    -0.236 NA
ATOM     22  N   UNL     1      -4.572   0.070  -2.733  1.00  0.00    -0.236 NA
ATOM     23  C   UNL     1      -4.040  -0.438  -3.848  1.00  0.00    +0.223 A 
BRANCH  20  24
ATOM     24  C   UNL     1      -4.365   0.809  -0.497  1.00  0.00    +0.001 A 
ATOM     25  C   UNL     1      -4.020   2.096  -0.050  1.00  0.00    +0.010 A 
ATOM     26  C   UNL     1      -5.343   0.098   0.215  1.00  0.00    +0.010 A 
ATOM     27  C   UNL     1      -4.618   2.644   1.088  1.00  0.00    +0.001 A 
ATOM     28  C   UNL     1      -5.941   0.645   1.353  1.00  0.00    +0.001 A 
ATOM     29  C   UNL     1      -5.575   1.916   1.791  1.00  0.00    +0.000 A 
ENDBRANCH  20  24
ENDBRANCH  12  14
ENDBRANCH   2  12
TORSDOF 5
