MODEL 1
REMARK VINA RESULT:    -5.614      0.000      0.000
REMARK INTER + INTRA:          -7.828
REMARK INTER:                  -7.420
REMARK INTRA:                  -0.408
REMARK UNBOUND:                -0.408
REMARK SMILES C[N+](C)(C)C[C@H](O)COc1c(Cl)cccc1Cl
REMARK SMILES IDX 6 1 5 2 2 3 1 4 3 5 4 6 7 7 8 9 9 10 10 11 11 12 16 13 13 14
REMARK SMILES IDX 15 15 14 16 12 17 17 18
REMARK H PARENT 7 8
ROOT
ATOM      1  C   UNL     1      26.653  -1.079  53.329  1.00  0.00    +0.206 C 
ENDROOT
BRANCH   1   2
ATOM      2  C   UNL     1      27.550   0.058  52.801  1.00  0.00    +0.299 C 
BRANCH   2   3
ATOM      3  N   UNL     1      28.629   0.564  53.802  1.00  0.00    -0.329 N 
ATOM      4  C   UNL     1      28.164   0.197  55.212  1.00  0.00    +0.334 C 
ATOM      5  C   UNL     1      29.977  -0.094  53.548  1.00  0.00    +0.334 C 
ATOM      6  C   UNL     1      28.788   2.083  53.733  1.00  0.00    +0.334 C 
ENDBRANCH   2   3
ENDBRANCH   1   2
BRANCH   1   7
ATOM      7  O   UNL     1      27.176  -2.348  52.915  1.00  0.00    -0.384 OA
ATOM      8  H   UNL     1      28.113  -2.377  53.206  1.00  0.00    +0.211 HD
ENDBRANCH   1   7
BRANCH   1   9
ATOM      9  C   UNL     1      25.228  -0.932  52.775  1.00  0.00    +0.267 C 
BRANCH   9  10
ATOM     10  O   UNL     1      24.596   0.103  53.547  1.00  0.00    -0.488 OA
BRANCH  10  11
ATOM     11  C   UNL     1      23.230  -0.041  53.537  1.00  0.00    +0.156 A 
ATOM     12  C   UNL     1      22.589  -0.815  54.514  1.00  0.00    +0.084 A 
ATOM     13  C   UNL     1      22.477   0.513  52.494  1.00  0.00    +0.084 A 
ATOM     14  C   UNL     1      21.204  -0.993  54.470  1.00  0.00    +0.024 A 
ATOM     15  C   UNL     1      21.092   0.335  52.453  1.00  0.00    +0.024 A 
ATOM     16  C   UNL     1      20.456  -0.416  53.443  1.00  0.00    +0.003 A 
ATOM     17 Cl   UNL     1      23.478  -1.572  55.787  1.00  0.00    -0.080 Cl
ATOM     18 Cl   UNL     1      23.231   1.430  51.239  1.00  0.00    -0.080 Cl
ENDBRANCH  10  11
ENDBRANCH   9  10
ENDBRANCH   1   9
TORSDOF 6
ENDMDL
MODEL 2
REMARK VINA RESULT:    -5.607      0.050      2.209
REMARK INTER + INTRA:          -7.819
REMARK INTER:                  -7.403
REMARK INTRA:                  -0.415
REMARK UNBOUND:                -0.408
REMARK SMILES C[N+](C)(C)C[C@H](O)COc1c(Cl)cccc1Cl
REMARK SMILES IDX 6 1 5 2 2 3 1 4 3 5 4 6 7 7 8 9 9 10 10 11 11 12 16 13 13 14
REMARK SMILES IDX 15 15 14 16 12 17 17 18
REMARK H PARENT 7 8
ROOT
ATOM      1  C   UNL     1      26.656  -1.044  53.337  1.00  0.00    +0.206 C 
ENDROOT
BRANCH   1   2
ATOM      2  C   UNL     1      27.554   0.088  52.801  1.00  0.00    +0.299 C 
BRANCH   2   3
ATOM      3  N   UNL     1      28.644   0.589  53.792  1.00  0.00    -0.329 N 
ATOM      4  C   UNL     1      28.198   0.208  55.205  1.00  0.00    +0.334 C 
ATOM      5  C   UNL     1      29.991  -0.060  53.515  1.00  0.00    +0.334 C 
ATOM      6  C   UNL     1      28.794   2.109  53.735  1.00  0.00    +0.334 C 
ENDBRANCH   2   3
ENDBRANCH   1   2
BRANCH   1   7
ATOM      7  O   UNL     1      27.199  -2.319  52.965  1.00  0.00    -0.384 OA
ATOM      8  H   UNL     1      27.266  -2.849  53.788  1.00  0.00    +0.211 HD
ENDBRANCH   1   7
BRANCH   1   9
ATOM      9  C   UNL     1      25.242  -0.924  52.751  1.00  0.00    +0.267 C 
BRANCH   9  10
ATOM     10  O   UNL     1      24.563   0.080  53.525  1.00  0.00    -0.488 OA
BRANCH  10  11
ATOM     11  C   UNL     1      23.203  -0.108  53.489  1.00  0.00    +0.156 A 
ATOM     12  C   UNL     1      22.428   0.496  52.491  1.00  0.00    +0.084 A 
ATOM     13  C   UNL     1      22.572  -0.834  54.508  1.00  0.00    +0.084 A 
ATOM     14  C   UNL     1      21.040   0.336  52.488  1.00  0.00    +0.024 A 
ATOM     15  C   UNL     1      21.185  -0.993  54.503  1.00  0.00    +0.024 A 
ATOM     16  C   UNL     1      20.419  -0.410  53.491  1.00  0.00    +0.003 A 
ATOM     17 Cl   UNL     1      23.150   1.452  51.247  1.00  0.00    -0.080 Cl
ATOM     18 Cl   UNL     1      23.483  -1.551  55.788  1.00  0.00    -0.080 Cl
ENDBRANCH  10  11
ENDBRANCH   9  10
ENDBRANCH   1   9
TORSDOF 6
ENDMDL
MODEL 3
REMARK VINA RESULT:    -5.444      2.944      6.447
REMARK INTER + INTRA:          -7.603
REMARK INTER:                  -7.177
REMARK INTRA:                  -0.426
REMARK UNBOUND:                -0.408
REMARK SMILES C[N+](C)(C)C[C@H](O)COc1c(Cl)cccc1Cl
REMARK SMILES IDX 6 1 5 2 2 3 1 4 3 5 4 6 7 7 8 9 9 10 10 11 11 12 16 13 13 14
REMARK SMILES IDX 15 15 14 16 12 17 17 18
REMARK H PARENT 7 8
ROOT
ATOM      1  C   UNL     1      24.430   1.696  53.220  1.00  0.00    +0.206 C 
ENDROOT
BRANCH   1   2
ATOM      2  C   UNL     1      23.745   1.372  51.878  1.00  0.00    +0.299 C 
BRANCH   2   3
ATOM      3  N   UNL     1      22.191   1.442  51.897  1.00  0.00    -0.329 N 
ATOM      4  C   UNL     1      21.683   0.861  50.577  1.00  0.00    +0.334 C 
ATOM      5  C   UNL     1      21.610   0.628  53.043  1.00  0.00    +0.334 C 
ATOM      6  C   UNL     1      21.698   2.885  52.002  1.00  0.00    +0.334 C 
ENDBRANCH   2   3
ENDBRANCH   1   2
BRANCH   1   7
ATOM      7  O   UNL     1      25.126   2.947  53.125  1.00  0.00    -0.384 OA
ATOM      8  H   UNL     1      24.891   3.463  53.926  1.00  0.00    +0.211 HD
ENDBRANCH   1   7
BRANCH   1   9
ATOM      9  C   UNL     1      25.441   0.598  53.581  1.00  0.00    +0.267 C 
BRANCH   9  10
ATOM     10  O   UNL     1      26.430   0.597  52.537  1.00  0.00    -0.488 OA
BRANCH  10  11
ATOM     11  C   UNL     1      27.607   0.040  52.975  1.00  0.00    +0.156 A 
ATOM     12  C   UNL     1      28.630   0.848  53.487  1.00  0.00    +0.084 A 
ATOM     13  C   UNL     1      27.825  -1.336  52.827  1.00  0.00    +0.084 A 
ATOM     14  C   UNL     1      29.840   0.278  53.889  1.00  0.00    +0.024 A 
ATOM     15  C   UNL     1      29.035  -1.905  53.230  1.00  0.00    +0.024 A 
ATOM     16  C   UNL     1      30.041  -1.098  53.764  1.00  0.00    +0.003 A 
ATOM     17 Cl   UNL     1      28.436   2.559  53.633  1.00  0.00    -0.080 Cl
ATOM     18 Cl   UNL     1      26.612  -2.364  52.151  1.00  0.00    -0.080 Cl
ENDBRANCH  10  11
ENDBRANCH   9  10
ENDBRANCH   1   9
TORSDOF 6
ENDMDL
MODEL 4
REMARK VINA RESULT:    -5.399      1.634      2.076
REMARK INTER + INTRA:          -7.544
REMARK INTER:                  -7.050
REMARK INTRA:                  -0.493
REMARK UNBOUND:                -0.408
REMARK SMILES C[N+](C)(C)C[C@H](O)COc1c(Cl)cccc1Cl
REMARK SMILES IDX 6 1 5 2 2 3 1 4 3 5 4 6 7 7 8 9 9 10 10 11 11 12 16 13 13 14
REMARK SMILES IDX 15 15 14 16 12 17 17 18
REMARK H PARENT 7 8
ROOT
ATOM      1  C   UNL     1      26.793   1.830  52.246  1.00  0.00    +0.206 C 
ENDROOT
BRANCH   1   2
ATOM      2  C   UNL     1      27.496   1.739  53.615  1.00  0.00    +0.299 C 
BRANCH   2   3
ATOM      3  N   UNL     1      28.311   0.435  53.851  1.00  0.00    -0.329 N 
ATOM      4  C   UNL     1      28.146   0.043  55.321  1.00  0.00    +0.334 C 
ATOM      5  C   UNL     1      27.803  -0.705  52.983  1.00  0.00    +0.334 C 
ATOM      6  C   UNL     1      29.801   0.650  53.582  1.00  0.00    +0.334 C 
ENDBRANCH   2   3
ENDBRANCH   1   2
BRANCH   1   7
ATOM      7  O   UNL     1      27.249   2.991  51.537  1.00  0.00    -0.384 OA
ATOM      8  H   UNL     1      26.668   3.733  51.807  1.00  0.00    +0.211 HD
ENDBRANCH   1   7
BRANCH   1   9
ATOM      9  C   UNL     1      25.273   1.936  52.435  1.00  0.00    +0.267 C 
BRANCH   9  10
ATOM     10  O   UNL     1      24.720   0.683  51.999  1.00  0.00    -0.488 OA
BRANCH  10  11
ATOM     11  C   UNL     1      23.471   0.483  52.537  1.00  0.00    +0.156 A 
ATOM     12  C   UNL     1      23.321  -0.195  53.754  1.00  0.00    +0.084 A 
ATOM     13  C   UNL     1      22.333   0.878  51.823  1.00  0.00    +0.084 A 
ATOM     14  C   UNL     1      22.046  -0.432  54.271  1.00  0.00    +0.024 A 
ATOM     15  C   UNL     1      21.059   0.641  52.342  1.00  0.00    +0.024 A 
ATOM     16  C   UNL     1      20.915  -0.012  53.568  1.00  0.00    +0.003 A 
ATOM     17 Cl   UNL     1      24.690  -0.758  54.644  1.00  0.00    -0.080 Cl
ATOM     18 Cl   UNL     1      22.469   1.669  50.293  1.00  0.00    -0.080 Cl
ENDBRANCH  10  11
ENDBRANCH   9  10
ENDBRANCH   1   9
TORSDOF 6
ENDMDL
MODEL 5
REMARK VINA RESULT:    -5.270      2.018      3.588
REMARK INTER + INTRA:          -7.373
REMARK INTER:                  -6.919
REMARK INTRA:                  -0.454
REMARK UNBOUND:                -0.408
REMARK SMILES C[N+](C)(C)C[C@H](O)COc1c(Cl)cccc1Cl
REMARK SMILES IDX 6 1 5 2 2 3 1 4 3 5 4 6 7 7 8 9 9 10 10 11 11 12 16 13 13 14
REMARK SMILES IDX 15 15 14 16 12 17 17 18
REMARK H PARENT 7 8
ROOT
ATOM      1  C   UNL     1      24.659   1.986  52.893  1.00  0.00    +0.206 C 
ENDROOT
BRANCH   1   2
ATOM      2  C   UNL     1      25.284   0.796  53.647  1.00  0.00    +0.299 C 
BRANCH   2   3
ATOM      3  N   UNL     1      26.615   0.261  53.045  1.00  0.00    -0.329 N 
ATOM      4  C   UNL     1      26.462  -1.248  52.845  1.00  0.00    +0.334 C 
ATOM      5  C   UNL     1      26.916   0.902  51.699  1.00  0.00    +0.334 C 
ATOM      6  C   UNL     1      27.792   0.498  53.992  1.00  0.00    +0.334 C 
ENDBRANCH   2   3
ENDBRANCH   1   2
BRANCH   1   7
ATOM      7  O   UNL     1      24.927   3.207  53.596  1.00  0.00    -0.384 OA
ATOM      8  H   UNL     1      24.103   3.446  54.072  1.00  0.00    +0.211 HD
ENDBRANCH   1   7
BRANCH   1   9
ATOM      9  C   UNL     1      23.137   1.807  52.784  1.00  0.00    +0.267 C 
BRANCH   9  10
ATOM     10  O   UNL     1      22.914   0.437  52.412  1.00  0.00    -0.488 OA
BRANCH  10  11
ATOM     11  C   UNL     1      21.571   0.148  52.381  1.00  0.00    +0.156 A 
ATOM     12  C   UNL     1      20.807   0.438  51.244  1.00  0.00    +0.084 A 
ATOM     13  C   UNL     1      20.940  -0.357  53.526  1.00  0.00    +0.084 A 
ATOM     14  C   UNL     1      19.434   0.182  51.238  1.00  0.00    +0.024 A 
ATOM     15  C   UNL     1      19.567  -0.613  53.517  1.00  0.00    +0.024 A 
ATOM     16  C   UNL     1      18.815  -0.346  52.372  1.00  0.00    +0.003 A 
ATOM     17 Cl   UNL     1      21.525   1.118  49.827  1.00  0.00    -0.080 Cl
ATOM     18 Cl   UNL     1      21.833  -0.679  54.968  1.00  0.00    -0.080 Cl
ENDBRANCH  10  11
ENDBRANCH   9  10
ENDBRANCH   1   9
TORSDOF 6
ENDMDL
MODEL 6
REMARK VINA RESULT:    -5.265      1.881      2.735
REMARK INTER + INTRA:          -7.366
REMARK INTER:                  -6.913
REMARK INTRA:                  -0.454
REMARK UNBOUND:                -0.408
REMARK SMILES C[N+](C)(C)C[C@H](O)COc1c(Cl)cccc1Cl
REMARK SMILES IDX 6 1 5 2 2 3 1 4 3 5 4 6 7 7 8 9 9 10 10 11 11 12 16 13 13 14
REMARK SMILES IDX 15 15 14 16 12 17 17 18
REMARK H PARENT 7 8
ROOT
ATOM      1  C   UNL     1      25.102   1.914  52.548  1.00  0.00    +0.206 C 
ENDROOT
BRANCH   1   2
ATOM      2  C   UNL     1      26.015   1.699  53.772  1.00  0.00    +0.299 C 
BRANCH   2   3
ATOM      3  N   UNL     1      26.637   0.278  53.888  1.00  0.00    -0.329 N 
ATOM      4  C   UNL     1      26.797  -0.277  52.472  1.00  0.00    +0.334 C 
ATOM      5  C   UNL     1      28.004   0.319  54.552  1.00  0.00    +0.334 C 
ATOM      6  C   UNL     1      25.724  -0.668  54.669  1.00  0.00    +0.334 C 
ENDBRANCH   2   3
ENDBRANCH   1   2
BRANCH   1   7
ATOM      7  O   UNL     1      25.259   3.249  52.048  1.00  0.00    -0.384 OA
ATOM      8  H   UNL     1      25.896   3.701  52.641  1.00  0.00    +0.211 HD
ENDBRANCH   1   7
BRANCH   1   9
ATOM      9  C   UNL     1      23.632   1.707  52.939  1.00  0.00    +0.267 C 
BRANCH   9  10
ATOM     10  O   UNL     1      23.271   0.392  52.481  1.00  0.00    -0.488 OA
BRANCH  10  11
ATOM     11  C   UNL     1      21.906   0.235  52.465  1.00  0.00    +0.156 A 
ATOM     12  C   UNL     1      21.245  -0.360  53.547  1.00  0.00    +0.084 A 
ATOM     13  C   UNL     1      21.176   0.590  51.322  1.00  0.00    +0.084 A 
ATOM     14  C   UNL     1      19.863  -0.556  53.503  1.00  0.00    +0.024 A 
ATOM     15  C   UNL     1      19.795   0.394  51.281  1.00  0.00    +0.024 A 
ATOM     16  C   UNL     1      19.138  -0.176  52.372  1.00  0.00    +0.003 A 
ATOM     17 Cl   UNL     1      22.105  -0.872  54.955  1.00  0.00    -0.080 Cl
ATOM     18 Cl   UNL     1      21.957   1.278  49.944  1.00  0.00    -0.080 Cl
ENDBRANCH  10  11
ENDBRANCH   9  10
ENDBRANCH   1   9
TORSDOF 6
ENDMDL
MODEL 7
REMARK VINA RESULT:    -5.256      2.399      3.556
REMARK INTER + INTRA:          -7.355
REMARK INTER:                  -6.846
REMARK INTRA:                  -0.509
REMARK UNBOUND:                -0.408
REMARK SMILES C[N+](C)(C)C[C@H](O)COc1c(Cl)cccc1Cl
REMARK SMILES IDX 6 1 5 2 2 3 1 4 3 5 4 6 7 7 8 9 9 10 10 11 11 12 16 13 13 14
REMARK SMILES IDX 15 15 14 16 12 17 17 18
REMARK H PARENT 7 8
ROOT
ATOM      1  C   UNL     1      26.785   2.004  51.854  1.00  0.00    +0.206 C 
ENDROOT
BRANCH   1   2
ATOM      2  C   UNL     1      27.025   1.964  53.376  1.00  0.00    +0.299 C 
BRANCH   2   3
ATOM      3  N   UNL     1      27.506   0.593  53.931  1.00  0.00    -0.329 N 
ATOM      4  C   UNL     1      28.976   0.741  54.328  1.00  0.00    +0.334 C 
ATOM      5  C   UNL     1      26.710   0.178  55.159  1.00  0.00    +0.334 C 
ATOM      6  C   UNL     1      27.408  -0.505  52.871  1.00  0.00    +0.334 C 
ENDBRANCH   2   3
ENDBRANCH   1   2
BRANCH   1   7
ATOM      7  O   UNL     1      27.413   3.163  51.289  1.00  0.00    -0.384 OA
ATOM      8  H   UNL     1      26.694   3.742  50.959  1.00  0.00    +0.211 HD
ENDBRANCH   1   7
BRANCH   1   9
ATOM      9  C   UNL     1      25.280   2.067  51.554  1.00  0.00    +0.267 C 
BRANCH   9  10
ATOM     10  O   UNL     1      24.628   2.359  52.801  1.00  0.00    -0.488 OA
BRANCH  10  11
ATOM     11  C   UNL     1      23.263   2.264  52.677  1.00  0.00    +0.156 A 
ATOM     12  C   UNL     1      22.499   3.392  52.350  1.00  0.00    +0.084 A 
ATOM     13  C   UNL     1      22.618   1.055  52.965  1.00  0.00    +0.084 A 
ATOM     14  C   UNL     1      21.108   3.296  52.268  1.00  0.00    +0.024 A 
ATOM     15  C   UNL     1      21.228   0.961  52.883  1.00  0.00    +0.024 A 
ATOM     16  C   UNL     1      20.473   2.081  52.531  1.00  0.00    +0.003 A 
ATOM     17 Cl   UNL     1      23.239   4.922  52.044  1.00  0.00    -0.080 Cl
ATOM     18 Cl   UNL     1      23.517  -0.347  53.425  1.00  0.00    -0.080 Cl
ENDBRANCH  10  11
ENDBRANCH   9  10
ENDBRANCH   1   9
TORSDOF 6
ENDMDL
MODEL 8
REMARK VINA RESULT:    -5.146      3.879      5.639
REMARK INTER + INTRA:          -7.209
REMARK INTER:                  -6.679
REMARK INTRA:                  -0.531
REMARK UNBOUND:                -0.408
REMARK SMILES C[N+](C)(C)C[C@H](O)COc1c(Cl)cccc1Cl
REMARK SMILES IDX 6 1 5 2 2 3 1 4 3 5 4 6 7 7 8 9 9 10 10 11 11 12 16 13 13 14
REMARK SMILES IDX 15 15 14 16 12 17 17 18
REMARK H PARENT 7 8
ROOT
ATOM      1  C   UNL     1      23.477   4.285  52.111  1.00  0.00    +0.206 C 
ENDROOT
BRANCH   1   2
ATOM      2  C   UNL     1      24.170   4.317  50.735  1.00  0.00    +0.299 C 
BRANCH   2   3
ATOM      3  N   UNL     1      23.208   4.321  49.513  1.00  0.00    -0.329 N 
ATOM      4  C   UNL     1      21.794   4.585  50.035  1.00  0.00    +0.334 C 
ATOM      5  C   UNL     1      23.571   5.413  48.519  1.00  0.00    +0.334 C 
ATOM      6  C   UNL     1      23.206   2.969  48.799  1.00  0.00    +0.334 C 
ENDBRANCH   2   3
ENDBRANCH   1   2
BRANCH   1   7
ATOM      7  O   UNL     1      23.894   5.411  52.896  1.00  0.00    -0.384 OA
ATOM      8  H   UNL     1      23.329   5.422  53.698  1.00  0.00    +0.211 HD
ENDBRANCH   1   7
BRANCH   1   9
ATOM      9  C   UNL     1      23.848   2.999  52.864  1.00  0.00    +0.267 C 
BRANCH   9  10
ATOM     10  O   UNL     1      23.274   1.911  52.119  1.00  0.00    -0.488 OA
BRANCH  10  11
ATOM     11  C   UNL     1      22.669   1.007  52.958  1.00  0.00    +0.156 A 
ATOM     12  C   UNL     1      21.325   1.161  53.322  1.00  0.00    +0.084 A 
ATOM     13  C   UNL     1      23.422  -0.029  53.527  1.00  0.00    +0.084 A 
ATOM     14  C   UNL     1      20.731   0.262  54.210  1.00  0.00    +0.024 A 
ATOM     15  C   UNL     1      22.826  -0.927  54.414  1.00  0.00    +0.024 A 
ATOM     16  C   UNL     1      21.480  -0.784  54.753  1.00  0.00    +0.003 A 
ATOM     17 Cl   UNL     1      20.368   2.456  52.697  1.00  0.00    -0.080 Cl
ATOM     18 Cl   UNL     1      25.096  -0.225  53.149  1.00  0.00    -0.080 Cl
ENDBRANCH  10  11
ENDBRANCH   9  10
ENDBRANCH   1   9
TORSDOF 6
ENDMDL
MODEL 9
REMARK VINA RESULT:    -5.114      4.093      5.627
REMARK INTER + INTRA:          -7.166
REMARK INTER:                  -6.773
REMARK INTRA:                  -0.393
REMARK UNBOUND:                -0.408
REMARK SMILES C[N+](C)(C)C[C@H](O)COc1c(Cl)cccc1Cl
REMARK SMILES IDX 6 1 5 2 2 3 1 4 3 5 4 6 7 7 8 9 9 10 10 11 11 12 16 13 13 14
REMARK SMILES IDX 15 15 14 16 12 17 17 18
REMARK H PARENT 7 8
ROOT
ATOM      1  C   UNL     1      23.484   4.242  52.600  1.00  0.00    +0.206 C 
ENDROOT
BRANCH   1   2
ATOM      2  C   UNL     1      23.947   4.704  51.203  1.00  0.00    +0.299 C 
BRANCH   2   3
ATOM      3  N   UNL     1      22.986   5.695  50.486  1.00  0.00    -0.329 N 
ATOM      4  C   UNL     1      23.042   5.394  48.987  1.00  0.00    +0.334 C 
ATOM      5  C   UNL     1      21.552   5.525  50.962  1.00  0.00    +0.334 C 
ATOM      6  C   UNL     1      23.420   7.145  50.696  1.00  0.00    +0.334 C 
ENDBRANCH   2   3
ENDBRANCH   1   2
BRANCH   1   7
ATOM      7  O   UNL     1      23.903   5.189  53.592  1.00  0.00    -0.384 OA
ATOM      8  H   UNL     1      24.561   4.733  54.159  1.00  0.00    +0.211 HD
ENDBRANCH   1   7
BRANCH   1   9
ATOM      9  C   UNL     1      24.095   2.875  52.938  1.00  0.00    +0.267 C 
BRANCH   9  10
ATOM     10  O   UNL     1      23.330   1.896  52.214  1.00  0.00    -0.488 OA
BRANCH  10  11
ATOM     11  C   UNL     1      22.756   0.989  53.070  1.00  0.00    +0.156 A 
ATOM     12  C   UNL     1      23.494  -0.097  53.557  1.00  0.00    +0.084 A 
ATOM     13  C   UNL     1      21.396   1.097  53.391  1.00  0.00    +0.084 A 
ATOM     14  C   UNL     1      22.889  -1.039  54.393  1.00  0.00    +0.024 A 
ATOM     15  C   UNL     1      20.793   0.155  54.227  1.00  0.00    +0.024 A 
ATOM     16  C   UNL     1      21.541  -0.911  54.730  1.00  0.00    +0.003 A 
ATOM     17 Cl   UNL     1      25.158  -0.311  53.143  1.00  0.00    -0.080 Cl
ATOM     18 Cl   UNL     1      20.433   2.389  52.770  1.00  0.00    -0.080 Cl
ENDBRANCH  10  11
ENDBRANCH   9  10
ENDBRANCH   1   9
TORSDOF 6
ENDMDL
