MODEL 1
REMARK VINA RESULT:    -6.408      0.000      0.000
REMARK INTER + INTRA:          -7.125
REMARK INTER:                  -6.782
REMARK INTRA:                  -0.343
REMARK UNBOUND:                -0.343
REMARK SMILES Cc1cc(C)c(-c2ccccc2)[nH]1
REMARK SMILES IDX 1 1 2 2 3 3 4 4 5 5 6 6 13 7 7 9 8 10 12 11 9 12 11 13 10 14
REMARK H PARENT 13 8
ROOT
ATOM      1  C   UNL     1      21.833  -1.142  54.658  1.00  0.00    +0.064 C 
ATOM      2  C   UNL     1      22.998  -0.516  53.990  1.00  0.00    +0.012 A 
ATOM      3  C   UNL     1      23.069   0.444  53.004  1.00  0.00    +0.026 A 
ATOM      4  C   UNL     1      24.443   0.687  52.719  1.00  0.00    -0.025 A 
ATOM      5  C   UNL     1      24.962   1.663  51.724  1.00  0.00    +0.047 C 
ATOM      6  C   UNL     1      25.184  -0.145  53.550  1.00  0.00    +0.049 A 
ATOM      7  N   UNL     1      24.286  -0.861  54.311  1.00  0.00    -0.358 N 
ATOM      8  H   UNL     1      24.550  -1.559  54.994  1.00  0.00    +0.166 HD
ENDROOT
BRANCH   6   9
ATOM      9  C   UNL     1      26.626  -0.337  53.683  1.00  0.00    -0.002 A 
ATOM     10  C   UNL     1      27.373   0.472  54.549  1.00  0.00    +0.010 A 
ATOM     11  C   UNL     1      27.284  -1.326  52.942  1.00  0.00    +0.010 A 
ATOM     12  C   UNL     1      28.753   0.296  54.671  1.00  0.00    +0.001 A 
ATOM     13  C   UNL     1      28.664  -1.504  53.065  1.00  0.00    +0.001 A 
ATOM     14  C   UNL     1      29.398  -0.693  53.928  1.00  0.00    +0.000 A 
ENDBRANCH   6   9
TORSDOF 1
ENDMDL
MODEL 2
REMARK VINA RESULT:    -6.264      1.457      4.797
REMARK INTER + INTRA:          -6.973
REMARK INTER:                  -6.689
REMARK INTRA:                  -0.284
REMARK UNBOUND:                -0.343
REMARK SMILES Cc1cc(C)c(-c2ccccc2)[nH]1
REMARK SMILES IDX 1 1 2 2 3 3 4 4 5 5 6 6 13 7 7 9 8 10 12 11 9 12 11 13 10 14
REMARK H PARENT 13 8
ROOT
ATOM      1  C   UNL     1      29.522  -1.253  53.540  1.00  0.00    +0.064 C 
ATOM      2  C   UNL     1      28.264  -0.477  53.645  1.00  0.00    +0.012 A 
ATOM      3  C   UNL     1      28.027   0.878  53.579  1.00  0.00    +0.026 A 
ATOM      4  C   UNL     1      26.628   1.092  53.745  1.00  0.00    -0.025 A 
ATOM      5  C   UNL     1      25.946   2.414  53.725  1.00  0.00    +0.047 C 
ATOM      6  C   UNL     1      26.042  -0.157  53.912  1.00  0.00    +0.049 A 
ATOM      7  N   UNL     1      27.053  -1.090  53.846  1.00  0.00    -0.358 N 
ATOM      8  H   UNL     1      26.914  -2.086  53.953  1.00  0.00    +0.166 HD
ENDROOT
BRANCH   6   9
ATOM      9  C   UNL     1      24.652  -0.546  54.138  1.00  0.00    -0.002 A 
ATOM     10  C   UNL     1      24.277  -1.181  55.329  1.00  0.00    +0.010 A 
ATOM     11  C   UNL     1      23.676  -0.297  53.166  1.00  0.00    +0.010 A 
ATOM     12  C   UNL     1      22.951  -1.561  55.543  1.00  0.00    +0.001 A 
ATOM     13  C   UNL     1      22.349  -0.676  53.380  1.00  0.00    +0.001 A 
ATOM     14  C   UNL     1      21.987  -1.309  54.568  1.00  0.00    +0.000 A 
ENDBRANCH   6   9
TORSDOF 1
ENDMDL
MODEL 3
REMARK VINA RESULT:    -6.119      1.375      5.014
REMARK INTER + INTRA:          -6.819
REMARK INTER:                  -6.478
REMARK INTRA:                  -0.341
REMARK UNBOUND:                -0.343
REMARK SMILES Cc1cc(C)c(-c2ccccc2)[nH]1
REMARK SMILES IDX 1 1 2 2 3 3 4 4 5 5 6 6 13 7 7 9 8 10 12 11 9 12 11 13 10 14
REMARK H PARENT 13 8
ROOT
ATOM      1  C   UNL     1      29.119   1.879  54.296  1.00  0.00    +0.064 C 
ATOM      2  C   UNL     1      28.180   0.798  53.915  1.00  0.00    +0.012 A 
ATOM      3  C   UNL     1      28.372  -0.352  53.181  1.00  0.00    +0.026 A 
ATOM      4  C   UNL     1      27.131  -1.046  53.110  1.00  0.00    -0.025 A 
ATOM      5  C   UNL     1      26.902  -2.343  52.419  1.00  0.00    +0.047 C 
ATOM      6  C   UNL     1      26.200  -0.288  53.810  1.00  0.00    +0.049 A 
ATOM      7  N   UNL     1      26.861   0.822  54.290  1.00  0.00    -0.358 N 
ATOM      8  H   UNL     1      26.420   1.558  54.825  1.00  0.00    +0.166 HD
ENDROOT
BRANCH   6   9
ATOM      9  C   UNL     1      24.775  -0.497  54.055  1.00  0.00    -0.002 A 
ATOM     10  C   UNL     1      23.820   0.016  53.169  1.00  0.00    +0.010 A 
ATOM     11  C   UNL     1      24.343  -1.207  55.182  1.00  0.00    +0.010 A 
ATOM     12  C   UNL     1      22.457  -0.176  53.406  1.00  0.00    +0.001 A 
ATOM     13  C   UNL     1      22.980  -1.400  55.419  1.00  0.00    +0.001 A 
ATOM     14  C   UNL     1      22.038  -0.884  54.531  1.00  0.00    +0.000 A 
ENDBRANCH   6   9
TORSDOF 1
ENDMDL
MODEL 4
REMARK VINA RESULT:    -5.916      1.619      2.977
REMARK INTER + INTRA:          -6.605
REMARK INTER:                  -6.351
REMARK INTRA:                  -0.254
REMARK UNBOUND:                -0.343
REMARK SMILES Cc1cc(C)c(-c2ccccc2)[nH]1
REMARK SMILES IDX 1 1 2 2 3 3 4 4 5 5 6 6 13 7 7 9 8 10 12 11 9 12 11 13 10 14
REMARK H PARENT 13 8
ROOT
ATOM      1  C   UNL     1      24.144   3.109  50.345  1.00  0.00    +0.064 C 
ATOM      2  C   UNL     1      24.534   2.078  51.335  1.00  0.00    +0.012 A 
ATOM      3  C   UNL     1      23.777   1.328  52.207  1.00  0.00    +0.026 A 
ATOM      4  C   UNL     1      24.656   0.482  52.942  1.00  0.00    -0.025 A 
ATOM      5  C   UNL     1      24.245  -0.500  53.982  1.00  0.00    +0.047 C 
ATOM      6  C   UNL     1      25.944   0.744  52.493  1.00  0.00    +0.049 A 
ATOM      7  N   UNL     1      25.843   1.713  51.518  1.00  0.00    -0.358 N 
ATOM      8  H   UNL     1      26.633   2.108  51.027  1.00  0.00    +0.166 HD
ENDROOT
BRANCH   6   9
ATOM      9  C   UNL     1      27.236   0.192  52.894  1.00  0.00    -0.002 A 
ATOM     10  C   UNL     1      27.482  -1.183  52.797  1.00  0.00    +0.010 A 
ATOM     11  C   UNL     1      28.244   1.029  53.390  1.00  0.00    +0.010 A 
ATOM     12  C   UNL     1      28.713  -1.713  53.188  1.00  0.00    +0.001 A 
ATOM     13  C   UNL     1      29.476   0.499  53.781  1.00  0.00    +0.001 A 
ATOM     14  C   UNL     1      29.710  -0.871  53.681  1.00  0.00    +0.000 A 
ENDBRANCH   6   9
TORSDOF 1
ENDMDL
MODEL 5
REMARK VINA RESULT:    -5.906      1.310      5.141
REMARK INTER + INTRA:          -6.594
REMARK INTER:                  -6.350
REMARK INTRA:                  -0.244
REMARK UNBOUND:                -0.343
REMARK SMILES Cc1cc(C)c(-c2ccccc2)[nH]1
REMARK SMILES IDX 1 1 2 2 3 3 4 4 5 5 6 6 13 7 7 9 8 10 12 11 9 12 11 13 10 14
REMARK H PARENT 13 8
ROOT
ATOM      1  C   UNL     1      28.111  -0.873  53.166  1.00  0.00    +0.064 C 
ATOM      2  C   UNL     1      26.854  -0.089  53.207  1.00  0.00    +0.012 A 
ATOM      3  C   UNL     1      26.632   1.269  53.163  1.00  0.00    +0.026 A 
ATOM      4  C   UNL     1      25.227   1.492  53.239  1.00  0.00    -0.025 A 
ATOM      5  C   UNL     1      24.558   2.820  53.210  1.00  0.00    +0.047 C 
ATOM      6  C   UNL     1      24.622   0.244  53.330  1.00  0.00    +0.049 A 
ATOM      7  N   UNL     1      25.628  -0.696  53.307  1.00  0.00    -0.358 N 
ATOM      8  H   UNL     1      25.475  -1.693  53.376  1.00  0.00    +0.166 HD
ENDROOT
BRANCH   6   9
ATOM      9  C   UNL     1      23.217  -0.138  53.450  1.00  0.00    -0.002 A 
ATOM     10  C   UNL     1      22.287   0.263  52.483  1.00  0.00    +0.010 A 
ATOM     11  C   UNL     1      22.778  -0.905  54.536  1.00  0.00    +0.010 A 
ATOM     12  C   UNL     1      20.942  -0.095  52.600  1.00  0.00    +0.001 A 
ATOM     13  C   UNL     1      21.433  -1.264  54.653  1.00  0.00    +0.001 A 
ATOM     14  C   UNL     1      20.516  -0.858  53.686  1.00  0.00    +0.000 A 
ENDBRANCH   6   9
TORSDOF 1
ENDMDL
MODEL 6
REMARK VINA RESULT:    -5.887      1.967      5.020
REMARK INTER + INTRA:          -6.574
REMARK INTER:                  -6.409
REMARK INTRA:                  -0.165
REMARK UNBOUND:                -0.343
REMARK SMILES Cc1cc(C)c(-c2ccccc2)[nH]1
REMARK SMILES IDX 1 1 2 2 3 3 4 4 5 5 6 6 13 7 7 9 8 10 12 11 9 12 11 13 10 14
REMARK H PARENT 13 8
ROOT
ATOM      1  C   UNL     1      26.353   3.157  50.827  1.00  0.00    +0.064 C 
ATOM      2  C   UNL     1      26.088   1.866  51.505  1.00  0.00    +0.012 A 
ATOM      3  C   UNL     1      26.882   0.755  51.680  1.00  0.00    +0.026 A 
ATOM      4  C   UNL     1      26.134  -0.215  52.405  1.00  0.00    -0.025 A 
ATOM      5  C   UNL     1      26.626  -1.557  52.818  1.00  0.00    +0.047 C 
ATOM      6  C   UNL     1      24.884   0.338  52.655  1.00  0.00    +0.049 A 
ATOM      7  N   UNL     1      24.882   1.599  52.102  1.00  0.00    -0.358 N 
ATOM      8  H   UNL     1      24.089   2.226  52.120  1.00  0.00    +0.166 HD
ENDROOT
BRANCH   6   9
ATOM      9  C   UNL     1      23.711  -0.202  53.338  1.00  0.00    -0.002 A 
ATOM     10  C   UNL     1      23.839  -0.824  54.587  1.00  0.00    +0.010 A 
ATOM     11  C   UNL     1      22.442  -0.113  52.752  1.00  0.00    +0.010 A 
ATOM     12  C   UNL     1      22.720  -1.347  55.237  1.00  0.00    +0.001 A 
ATOM     13  C   UNL     1      21.322  -0.636  53.403  1.00  0.00    +0.001 A 
ATOM     14  C   UNL     1      21.461  -1.253  54.644  1.00  0.00    +0.000 A 
ENDBRANCH   6   9
TORSDOF 1
ENDMDL
MODEL 7
REMARK VINA RESULT:    -5.789      1.658      2.995
REMARK INTER + INTRA:          -6.470
REMARK INTER:                  -6.135
REMARK INTRA:                  -0.335
REMARK UNBOUND:                -0.343
REMARK SMILES Cc1cc(C)c(-c2ccccc2)[nH]1
REMARK SMILES IDX 1 1 2 2 3 3 4 4 5 5 6 6 13 7 7 9 8 10 12 11 9 12 11 13 10 14
REMARK H PARENT 13 8
ROOT
ATOM      1  C   UNL     1      20.274   0.302  51.569  1.00  0.00    +0.064 C 
ATOM      2  C   UNL     1      21.381  -0.022  52.499  1.00  0.00    +0.012 A 
ATOM      3  C   UNL     1      21.386  -0.698  53.699  1.00  0.00    +0.026 A 
ATOM      4  C   UNL     1      22.724  -0.727  54.186  1.00  0.00    -0.025 A 
ATOM      5  C   UNL     1      23.173  -1.372  55.448  1.00  0.00    +0.047 C 
ATOM      6  C   UNL     1      23.510  -0.057  53.256  1.00  0.00    +0.049 A 
ATOM      7  N   UNL     1      22.673   0.358  52.243  1.00  0.00    -0.358 N 
ATOM      8  H   UNL     1      22.977   0.888  51.437  1.00  0.00    +0.166 HD
ENDROOT
BRANCH   6   9
ATOM      9  C   UNL     1      24.941   0.237  53.237  1.00  0.00    -0.002 A 
ATOM     10  C   UNL     1      25.867  -0.762  52.912  1.00  0.00    +0.010 A 
ATOM     11  C   UNL     1      25.409   1.519  53.551  1.00  0.00    +0.010 A 
ATOM     12  C   UNL     1      27.236  -0.485  52.902  1.00  0.00    +0.001 A 
ATOM     13  C   UNL     1      26.778   1.797  53.539  1.00  0.00    +0.001 A 
ATOM     14  C   UNL     1      27.690   0.795  53.216  1.00  0.00    +0.000 A 
ENDBRANCH   6   9
TORSDOF 1
ENDMDL
MODEL 8
REMARK VINA RESULT:    -5.573      3.776      5.641
REMARK INTER + INTRA:          -6.241
REMARK INTER:                  -5.933
REMARK INTRA:                  -0.308
REMARK UNBOUND:                -0.343
REMARK SMILES Cc1cc(C)c(-c2ccccc2)[nH]1
REMARK SMILES IDX 1 1 2 2 3 3 4 4 5 5 6 6 13 7 7 9 8 10 12 11 9 12 11 13 10 14
REMARK H PARENT 13 8
ROOT
ATOM      1  C   UNL     1      25.382   3.884  50.166  1.00  0.00    +0.064 C 
ATOM      2  C   UNL     1      24.245   2.952  50.349  1.00  0.00    +0.012 A 
ATOM      3  C   UNL     1      23.257   2.546  49.479  1.00  0.00    +0.026 A 
ATOM      4  C   UNL     1      22.406   1.635  50.168  1.00  0.00    -0.025 A 
ATOM      5  C   UNL     1      21.220   0.950  49.588  1.00  0.00    +0.047 C 
ATOM      6  C   UNL     1      22.904   1.510  51.459  1.00  0.00    +0.049 A 
ATOM      7  N   UNL     1      24.019   2.315  51.543  1.00  0.00    -0.358 N 
ATOM      8  H   UNL     1      24.574   2.431  52.379  1.00  0.00    +0.166 HD
ENDROOT
BRANCH   6   9
ATOM      9  C   UNL     1      22.433   0.732  52.603  1.00  0.00    -0.002 A 
ATOM     10  C   UNL     1      23.185  -0.345  53.087  1.00  0.00    +0.010 A 
ATOM     11  C   UNL     1      21.219   1.047  53.226  1.00  0.00    +0.010 A 
ATOM     12  C   UNL     1      22.731  -1.095  54.175  1.00  0.00    +0.001 A 
ATOM     13  C   UNL     1      20.765   0.298  54.314  1.00  0.00    +0.001 A 
ATOM     14  C   UNL     1      21.521  -0.773  54.787  1.00  0.00    +0.000 A 
ENDBRANCH   6   9
TORSDOF 1
ENDMDL
MODEL 9
REMARK VINA RESULT:    -5.492      3.355      4.993
REMARK INTER + INTRA:          -6.156
REMARK INTER:                  -5.841
REMARK INTRA:                  -0.315
REMARK UNBOUND:                -0.343
REMARK SMILES Cc1cc(C)c(-c2ccccc2)[nH]1
REMARK SMILES IDX 1 1 2 2 3 3 4 4 5 5 6 6 13 7 7 9 8 10 12 11 9 12 11 13 10 14
REMARK H PARENT 13 8
ROOT
ATOM      1  C   UNL     1      21.794   1.724  48.227  1.00  0.00    +0.064 C 
ATOM      2  C   UNL     1      22.322   1.880  49.603  1.00  0.00    +0.012 A 
ATOM      3  C   UNL     1      23.030   2.906  50.190  1.00  0.00    +0.026 A 
ATOM      4  C   UNL     1      23.293   2.545  51.542  1.00  0.00    -0.025 A 
ATOM      5  C   UNL     1      24.023   3.379  52.535  1.00  0.00    +0.047 C 
ATOM      6  C   UNL     1      22.733   1.290  51.745  1.00  0.00    +0.049 A 
ATOM      7  N   UNL     1      22.149   0.910  50.556  1.00  0.00    -0.358 N 
ATOM      8  H   UNL     1      21.679   0.027  50.412  1.00  0.00    +0.166 HD
ENDROOT
BRANCH   6   9
ATOM      9  C   UNL     1      22.708   0.425  52.923  1.00  0.00    -0.002 A 
ATOM     10  C   UNL     1      21.508   0.192  53.607  1.00  0.00    +0.010 A 
ATOM     11  C   UNL     1      23.883  -0.177  53.389  1.00  0.00    +0.010 A 
ATOM     12  C   UNL     1      21.484  -0.627  54.738  1.00  0.00    +0.001 A 
ATOM     13  C   UNL     1      23.859  -0.998  54.519  1.00  0.00    +0.001 A 
ATOM     14  C   UNL     1      22.660  -1.222  55.193  1.00  0.00    +0.000 A 
ENDBRANCH   6   9
TORSDOF 1
ENDMDL
