MODEL 1
REMARK VINA RESULT:    -7.455      0.000      0.000
REMARK INTER + INTRA:         -10.403
REMARK INTER:                  -9.198
REMARK INTRA:                  -1.205
REMARK UNBOUND:                -1.205
REMARK SMILES Cc1cc(C)c(N(C(=O)c2ccccn2)c2ccccc2)[nH]1
REMARK SMILES IDX 7 1 6 2 2 3 3 4 22 5 4 6 1 7 5 9 8 10 9 11 10 12 11 13 15 14
REMARK SMILES IDX 12 15 14 16 13 17 16 18 17 19 21 20 18 21 20 22 19 23
REMARK H PARENT 22 8
ROOT
ATOM      1  N   UNL     1      25.725   0.369  53.474  1.00  0.00    -0.261 N 
ENDROOT
BRANCH   1   2
ATOM      2  C   UNL     1      24.518  -0.194  53.905  1.00  0.00    +0.120 A 
ATOM      3  C   UNL     1      22.315  -0.681  53.756  1.00  0.00    +0.014 A 
ATOM      4  C   UNL     1      22.767  -1.151  54.969  1.00  0.00    +0.028 A 
ATOM      5  N   UNL     1      23.386  -0.105  53.124  1.00  0.00    -0.345 N 
ATOM      6  C   UNL     1      24.158  -0.852  55.075  1.00  0.00    -0.008 A 
ATOM      7  C   UNL     1      20.968  -0.713  53.137  1.00  0.00    +0.064 C 
ATOM      8  H   UNL     1      23.357   0.366  52.230  1.00  0.00    +0.168 HD
ATOM      9  C   UNL     1      25.020  -1.247  56.221  1.00  0.00    +0.048 C 
ENDBRANCH   1   2
BRANCH   1  10
ATOM     10  C   UNL     1      25.850   1.766  53.337  1.00  0.00    +0.282 C 
ATOM     11  O   UNL     1      26.205   2.527  54.243  1.00  0.00    -0.266 OA
BRANCH  10  12
ATOM     12  C   UNL     1      25.605   2.383  51.991  1.00  0.00    +0.129 A 
ATOM     13  C   UNL     1      26.690   2.611  51.148  1.00  0.00    +0.034 A 
ATOM     14  N   UNL     1      24.317   2.622  51.626  1.00  0.00    -0.251 NA
ATOM     15  C   UNL     1      26.449   3.151  49.888  1.00  0.00    +0.004 A 
ATOM     16  C   UNL     1      24.120   3.153  50.401  1.00  0.00    +0.112 A 
ATOM     17  C   UNL     1      25.141   3.433  49.508  1.00  0.00    +0.020 A 
ENDBRANCH  10  12
ENDBRANCH   1  10
BRANCH   1  18
ATOM     18  C   UNL     1      26.871  -0.493  53.345  1.00  0.00    +0.051 A 
ATOM     19  C   UNL     1      28.145  -0.125  53.818  1.00  0.00    +0.027 A 
ATOM     20  C   UNL     1      26.748  -1.750  52.729  1.00  0.00    +0.027 A 
ATOM     21  C   UNL     1      29.241  -0.985  53.697  1.00  0.00    +0.002 A 
ATOM     22  C   UNL     1      27.843  -2.611  52.609  1.00  0.00    +0.002 A 
ATOM     23  C   UNL     1      29.089  -2.231  53.096  1.00  0.00    +0.000 A 
ENDBRANCH   1  18
TORSDOF 4
ENDMDL
MODEL 2
REMARK VINA RESULT:    -7.249      2.336      6.546
REMARK INTER + INTRA:         -10.150
REMARK INTER:                  -9.091
REMARK INTRA:                  -1.058
REMARK UNBOUND:                -1.205
REMARK SMILES Cc1cc(C)c(N(C(=O)c2ccccn2)c2ccccc2)[nH]1
REMARK SMILES IDX 7 1 6 2 2 3 3 4 22 5 4 6 1 7 5 9 8 10 9 11 10 12 11 13 15 14
REMARK SMILES IDX 12 15 14 16 13 17 16 18 17 19 21 20 18 21 20 22 19 23
REMARK H PARENT 22 8
ROOT
ATOM      1  N   UNL     1      24.237   3.214  51.091  1.00  0.00    -0.261 N 
ENDROOT
BRANCH   1   2
ATOM      2  C   UNL     1      24.718   4.448  50.639  1.00  0.00    +0.120 A 
ATOM      3  C   UNL     1      24.672   6.694  50.373  1.00  0.00    +0.014 A 
ATOM      4  C   UNL     1      25.753   6.210  49.670  1.00  0.00    +0.028 A 
ATOM      5  N   UNL     1      24.056   5.616  50.954  1.00  0.00    -0.345 N 
ATOM      6  C   UNL     1      25.795   4.793  49.831  1.00  0.00    -0.008 A 
ATOM      7  C   UNL     1      24.156   8.072  50.544  1.00  0.00    +0.064 C 
ATOM      8  H   UNL     1      23.206   5.649  51.501  1.00  0.00    +0.168 HD
ATOM      9  C   UNL     1      26.851   3.912  49.265  1.00  0.00    +0.048 C 
ENDBRANCH   1   2
BRANCH   1  10
ATOM     10  C   UNL     1      24.536   2.766  52.393  1.00  0.00    +0.282 C 
ATOM     11  O   UNL     1      24.257   3.386  53.425  1.00  0.00    -0.266 OA
BRANCH  10  12
ATOM     12  C   UNL     1      25.176   1.419  52.564  1.00  0.00    +0.129 A 
ATOM     13  C   UNL     1      26.320   1.120  51.830  1.00  0.00    +0.034 A 
ATOM     14  N   UNL     1      24.645   0.577  53.491  1.00  0.00    -0.251 NA
ATOM     15  C   UNL     1      26.927  -0.118  52.021  1.00  0.00    +0.004 A 
ATOM     16  C   UNL     1      25.253  -0.617  53.646  1.00  0.00    +0.112 A 
ATOM     17  C   UNL     1      26.381  -1.007  52.942  1.00  0.00    +0.020 A 
ENDBRANCH  10  12
ENDBRANCH   1  10
BRANCH   1  18
ATOM     18  C   UNL     1      23.297   2.504  50.261  1.00  0.00    +0.051 A 
ATOM     19  C   UNL     1      22.389   1.567  50.788  1.00  0.00    +0.027 A 
ATOM     20  C   UNL     1      23.263   2.731  48.876  1.00  0.00    +0.027 A 
ATOM     21  C   UNL     1      21.474   0.901  49.966  1.00  0.00    +0.002 A 
ATOM     22  C   UNL     1      22.347   2.067  48.053  1.00  0.00    +0.002 A 
ATOM     23  C   UNL     1      21.451   1.154  48.598  1.00  0.00    +0.000 A 
ENDBRANCH   1  18
TORSDOF 4
ENDMDL
MODEL 3
REMARK VINA RESULT:    -7.102      1.836      5.524
REMARK INTER + INTRA:          -9.968
REMARK INTER:                  -9.210
REMARK INTRA:                  -0.758
REMARK UNBOUND:                -1.205
REMARK SMILES Cc1cc(C)c(N(C(=O)c2ccccn2)c2ccccc2)[nH]1
REMARK SMILES IDX 7 1 6 2 2 3 3 4 22 5 4 6 1 7 5 9 8 10 9 11 10 12 11 13 15 14
REMARK SMILES IDX 12 15 14 16 13 17 16 18 17 19 21 20 18 21 20 22 19 23
REMARK H PARENT 22 8
ROOT
ATOM      1  N   UNL     1      23.527   1.508  52.402  1.00  0.00    -0.261 N 
ENDROOT
BRANCH   1   2
ATOM      2  C   UNL     1      23.182   2.019  51.146  1.00  0.00    +0.120 A 
ATOM      3  C   UNL     1      23.257   3.511  49.447  1.00  0.00    +0.014 A 
ATOM      4  C   UNL     1      22.311   2.562  49.130  1.00  0.00    +0.028 A 
ATOM      5  N   UNL     1      23.775   3.168  50.669  1.00  0.00    -0.345 N 
ATOM      6  C   UNL     1      22.254   1.612  50.194  1.00  0.00    -0.008 A 
ATOM      7  C   UNL     1      23.716   4.715  48.716  1.00  0.00    +0.064 C 
ATOM      8  H   UNL     1      24.463   3.699  51.186  1.00  0.00    +0.168 HD
ATOM      9  C   UNL     1      21.387   0.404  50.199  1.00  0.00    +0.048 C 
ENDBRANCH   1   2
BRANCH   1  10
ATOM     10  C   UNL     1      24.656   2.001  53.085  1.00  0.00    +0.282 C 
ATOM     11  O   UNL     1      24.738   3.135  53.569  1.00  0.00    -0.266 OA
BRANCH  10  12
ATOM     12  C   UNL     1      25.822   1.083  53.310  1.00  0.00    +0.129 A 
ATOM     13  C   UNL     1      26.206   0.222  52.287  1.00  0.00    +0.034 A 
ATOM     14  N   UNL     1      26.499   1.191  54.485  1.00  0.00    -0.251 NA
ATOM     15  C   UNL     1      27.310  -0.601  52.491  1.00  0.00    +0.004 A 
ATOM     16  C   UNL     1      27.559   0.374  54.653  1.00  0.00    +0.112 A 
ATOM     17  C   UNL     1      27.997  -0.529  53.699  1.00  0.00    +0.020 A 
ENDBRANCH  10  12
ENDBRANCH   1  10
BRANCH   1  18
ATOM     18  C   UNL     1      22.611   0.601  53.044  1.00  0.00    +0.051 A 
ATOM     19  C   UNL     1      22.875  -0.777  53.157  1.00  0.00    +0.027 A 
ATOM     20  C   UNL     1      21.403   1.075  53.582  1.00  0.00    +0.027 A 
ATOM     21  C   UNL     1      21.978  -1.638  53.799  1.00  0.00    +0.002 A 
ATOM     22  C   UNL     1      20.506   0.216  54.225  1.00  0.00    +0.002 A 
ATOM     23  C   UNL     1      20.795  -1.140  54.336  1.00  0.00    +0.000 A 
ENDBRANCH   1  18
TORSDOF 4
ENDMDL
MODEL 4
REMARK VINA RESULT:    -7.098      1.645      2.647
REMARK INTER + INTRA:          -9.963
REMARK INTER:                  -9.117
REMARK INTRA:                  -0.846
REMARK UNBOUND:                -1.205
REMARK SMILES Cc1cc(C)c(N(C(=O)c2ccccn2)c2ccccc2)[nH]1
REMARK SMILES IDX 7 1 6 2 2 3 3 4 22 5 4 6 1 7 5 9 8 10 9 11 10 12 11 13 15 14
REMARK SMILES IDX 12 15 14 16 13 17 16 18 17 19 21 20 18 21 20 22 19 23
REMARK H PARENT 22 8
ROOT
ATOM      1  N   UNL     1      24.606   1.505  52.687  1.00  0.00    -0.261 N 
ENDROOT
BRANCH   1   2
ATOM      2  C   UNL     1      23.397   0.802  52.617  1.00  0.00    +0.120 A 
ATOM      3  C   UNL     1      21.819  -0.643  53.351  1.00  0.00    +0.014 A 
ATOM      4  C   UNL     1      21.442  -0.210  52.099  1.00  0.00    +0.028 A 
ATOM      5  N   UNL     1      23.003  -0.021  53.650  1.00  0.00    -0.345 N 
ATOM      6  C   UNL     1      22.429   0.704  51.624  1.00  0.00    -0.008 A 
ATOM      7  C   UNL     1      21.177  -1.592  54.291  1.00  0.00    +0.064 C 
ATOM      8  H   UNL     1      23.551  -0.171  54.487  1.00  0.00    +0.168 HD
ATOM      9  C   UNL     1      22.351   1.430  50.328  1.00  0.00    +0.048 C 
ENDBRANCH   1   2
BRANCH   1  10
ATOM     10  C   UNL     1      24.617   2.911  52.604  1.00  0.00    +0.282 C 
ATOM     11  O   UNL     1      24.251   3.666  53.512  1.00  0.00    -0.266 OA
BRANCH  10  12
ATOM     12  C   UNL     1      25.167   3.557  51.367  1.00  0.00    +0.129 A 
ATOM     13  C   UNL     1      26.137   2.882  50.630  1.00  0.00    +0.034 A 
ATOM     14  N   UNL     1      24.633   4.746  50.979  1.00  0.00    -0.251 NA
ATOM     15  C   UNL     1      26.616   3.473  49.465  1.00  0.00    +0.004 A 
ATOM     16  C   UNL     1      25.125   5.294  49.849  1.00  0.00    +0.112 A 
ATOM     17  C   UNL     1      26.106   4.704  49.068  1.00  0.00    +0.020 A 
ENDBRANCH  10  12
ENDBRANCH   1  10
BRANCH   1  18
ATOM     18  C   UNL     1      25.801   0.772  53.016  1.00  0.00    +0.051 A 
ATOM     19  C   UNL     1      26.127  -0.449  52.397  1.00  0.00    +0.027 A 
ATOM     20  C   UNL     1      26.691   1.266  53.985  1.00  0.00    +0.027 A 
ATOM     21  C   UNL     1      27.302  -1.136  52.721  1.00  0.00    +0.002 A 
ATOM     22  C   UNL     1      27.867   0.580  54.307  1.00  0.00    +0.002 A 
ATOM     23  C   UNL     1      28.174  -0.619  53.673  1.00  0.00    +0.000 A 
ENDBRANCH   1  18
TORSDOF 4
ENDMDL
MODEL 5
REMARK VINA RESULT:    -6.713      2.133      5.527
REMARK INTER + INTRA:          -9.489
REMARK INTER:                  -8.396
REMARK INTRA:                  -1.093
REMARK UNBOUND:                -1.205
REMARK SMILES Cc1cc(C)c(N(C(=O)c2ccccn2)c2ccccc2)[nH]1
REMARK SMILES IDX 7 1 6 2 2 3 3 4 22 5 4 6 1 7 5 9 8 10 9 11 10 12 11 13 15 14
REMARK SMILES IDX 12 15 14 16 13 17 16 18 17 19 21 20 18 21 20 22 19 23
REMARK H PARENT 22 8
ROOT
ATOM      1  N   UNL     1      24.235   1.882  51.827  1.00  0.00    -0.261 N 
ENDROOT
BRANCH   1   2
ATOM      2  C   UNL     1      24.449   3.153  51.283  1.00  0.00    +0.120 A 
ATOM      3  C   UNL     1      25.488   4.674  49.969  1.00  0.00    +0.014 A 
ATOM      4  C   UNL     1      24.539   5.340  50.713  1.00  0.00    +0.028 A 
ATOM      5  N   UNL     1      25.421   3.352  50.325  1.00  0.00    -0.345 N 
ATOM      6  C   UNL     1      23.875   4.391  51.546  1.00  0.00    -0.008 A 
ATOM      7  C   UNL     1      26.460   5.161  48.962  1.00  0.00    +0.064 C 
ATOM      8  H   UNL     1      26.024   2.618  49.980  1.00  0.00    +0.168 HD
ATOM      9  C   UNL     1      22.747   4.717  52.459  1.00  0.00    +0.048 C 
ENDBRANCH   1   2
BRANCH   1  10
ATOM     10  C   UNL     1      23.038   1.187  51.564  1.00  0.00    +0.282 C 
ATOM     11  O   UNL     1      22.512   1.102  50.449  1.00  0.00    -0.266 OA
BRANCH  10  12
ATOM     12  C   UNL     1      22.377   0.437  52.683  1.00  0.00    +0.129 A 
ATOM     13  C   UNL     1      21.449   1.100  53.481  1.00  0.00    +0.034 A 
ATOM     14  N   UNL     1      22.663  -0.886  52.817  1.00  0.00    -0.251 NA
ATOM     15  C   UNL     1      20.815   0.387  54.495  1.00  0.00    +0.004 A 
ATOM     16  C   UNL     1      22.037  -1.546  53.814  1.00  0.00    +0.112 A 
ATOM     17  C   UNL     1      21.117  -0.960  54.669  1.00  0.00    +0.020 A 
ENDBRANCH  10  12
ENDBRANCH   1  10
BRANCH   1  18
ATOM     18  C   UNL     1      25.328   1.241  52.511  1.00  0.00    +0.051 A 
ATOM     19  C   UNL     1      26.025   0.151  51.957  1.00  0.00    +0.027 A 
ATOM     20  C   UNL     1      25.736   1.694  53.777  1.00  0.00    +0.027 A 
ATOM     21  C   UNL     1      27.095  -0.446  52.632  1.00  0.00    +0.002 A 
ATOM     22  C   UNL     1      26.807   1.099  54.452  1.00  0.00    +0.002 A 
ATOM     23  C   UNL     1      27.488   0.030  53.878  1.00  0.00    +0.000 A 
ENDBRANCH   1  18
TORSDOF 4
ENDMDL
MODEL 6
REMARK VINA RESULT:    -6.709      1.906      4.488
REMARK INTER + INTRA:          -9.482
REMARK INTER:                  -8.723
REMARK INTRA:                  -0.759
REMARK UNBOUND:                -1.205
REMARK SMILES Cc1cc(C)c(N(C(=O)c2ccccn2)c2ccccc2)[nH]1
REMARK SMILES IDX 7 1 6 2 2 3 3 4 22 5 4 6 1 7 5 9 8 10 9 11 10 12 11 13 15 14
REMARK SMILES IDX 12 15 14 16 13 17 16 18 17 19 21 20 18 21 20 22 19 23
REMARK H PARENT 22 8
ROOT
ATOM      1  N   UNL     1      24.558   0.437  52.965  1.00  0.00    -0.261 N 
ENDROOT
BRANCH   1   2
ATOM      2  C   UNL     1      23.477  -0.204  53.582  1.00  0.00    +0.120 A 
ATOM      3  C   UNL     1      21.307  -0.793  53.821  1.00  0.00    +0.014 A 
ATOM      4  C   UNL     1      21.999  -1.294  54.902  1.00  0.00    +0.028 A 
ATOM      5  N   UNL     1      22.215  -0.137  53.032  1.00  0.00    -0.345 N 
ATOM      6  C   UNL     1      23.371  -0.931  54.762  1.00  0.00    -0.008 A 
ATOM      7  C   UNL     1      19.870  -0.864  53.463  1.00  0.00    +0.064 C 
ATOM      8  H   UNL     1      21.999   0.372  52.186  1.00  0.00    +0.168 HD
ATOM      9  C   UNL     1      24.449  -1.334  55.705  1.00  0.00    +0.048 C 
ENDBRANCH   1   2
BRANCH   1  10
ATOM     10  C   UNL     1      25.776  -0.245  52.775  1.00  0.00    +0.282 C 
ATOM     11  O   UNL     1      25.902  -1.271  52.098  1.00  0.00    -0.266 OA
BRANCH  10  12
ATOM     12  C   UNL     1      27.027   0.333  53.368  1.00  0.00    +0.129 A 
ATOM     13  C   UNL     1      27.516   1.536  52.865  1.00  0.00    +0.034 A 
ATOM     14  N   UNL     1      27.585  -0.312  54.427  1.00  0.00    -0.251 NA
ATOM     15  C   UNL     1      28.657   2.083  53.444  1.00  0.00    +0.004 A 
ATOM     16  C   UNL     1      28.694   0.242  54.960  1.00  0.00    +0.112 A 
ATOM     17  C   UNL     1      29.262   1.422  54.508  1.00  0.00    +0.020 A 
ENDBRANCH  10  12
ENDBRANCH   1  10
BRANCH   1  18
ATOM     18  C   UNL     1      24.337   1.736  52.383  1.00  0.00    +0.051 A 
ATOM     19  C   UNL     1      24.319   1.941  50.991  1.00  0.00    +0.027 A 
ATOM     20  C   UNL     1      24.131   2.855  53.206  1.00  0.00    +0.027 A 
ATOM     21  C   UNL     1      24.087   3.209  50.447  1.00  0.00    +0.002 A 
ATOM     22  C   UNL     1      23.896   4.123  52.663  1.00  0.00    +0.002 A 
ATOM     23  C   UNL     1      23.871   4.299  51.283  1.00  0.00    +0.000 A 
ENDBRANCH   1  18
TORSDOF 4
ENDMDL
MODEL 7
REMARK VINA RESULT:    -6.702      1.449      1.986
REMARK INTER + INTRA:          -9.474
REMARK INTER:                  -8.460
REMARK INTRA:                  -1.015
REMARK UNBOUND:                -1.205
REMARK SMILES Cc1cc(C)c(N(C(=O)c2ccccn2)c2ccccc2)[nH]1
REMARK SMILES IDX 7 1 6 2 2 3 3 4 22 5 4 6 1 7 5 9 8 10 9 11 10 12 11 13 15 14
REMARK SMILES IDX 12 15 14 16 13 17 16 18 17 19 21 20 18 21 20 22 19 23
REMARK H PARENT 22 8
ROOT
ATOM      1  N   UNL     1      24.303   1.472  52.901  1.00  0.00    -0.261 N 
ENDROOT
BRANCH   1   2
ATOM      2  C   UNL     1      23.112   0.735  52.921  1.00  0.00    +0.120 A 
ATOM      3  C   UNL     1      21.024   0.194  52.243  1.00  0.00    +0.014 A 
ATOM      4  C   UNL     1      21.334  -0.603  53.322  1.00  0.00    +0.028 A 
ATOM      5  N   UNL     1      22.110   0.997  52.012  1.00  0.00    -0.345 N 
ATOM      6  C   UNL     1      22.651  -0.273  53.760  1.00  0.00    -0.008 A 
ATOM      7  C   UNL     1      19.800   0.280  51.411  1.00  0.00    +0.064 C 
ATOM      8  H   UNL     1      22.167   1.721  51.308  1.00  0.00    +0.168 HD
ATOM      9  C   UNL     1      23.365  -0.955  54.873  1.00  0.00    +0.048 C 
ENDBRANCH   1   2
BRANCH   1  10
ATOM     10  C   UNL     1      24.268   2.877  52.802  1.00  0.00    +0.282 C 
ATOM     11  O   UNL     1      24.292   3.645  53.769  1.00  0.00    -0.266 OA
BRANCH  10  12
ATOM     12  C   UNL     1      24.271   3.504  51.438  1.00  0.00    +0.129 A 
ATOM     13  C   UNL     1      25.466   3.561  50.727  1.00  0.00    +0.034 A 
ATOM     14  N   UNL     1      23.081   3.922  50.929  1.00  0.00    -0.251 NA
ATOM     15  C   UNL     1      25.452   4.113  49.449  1.00  0.00    +0.004 A 
ATOM     16  C   UNL     1      23.105   4.458  49.691  1.00  0.00    +0.112 A 
ATOM     17  C   UNL     1      24.251   4.576  48.922  1.00  0.00    +0.020 A 
ENDBRANCH  10  12
ENDBRANCH   1  10
BRANCH   1  18
ATOM     18  C   UNL     1      25.538   0.777  53.156  1.00  0.00    +0.051 A 
ATOM     19  C   UNL     1      26.306   1.011  54.311  1.00  0.00    +0.027 A 
ATOM     20  C   UNL     1      26.020  -0.171  52.238  1.00  0.00    +0.027 A 
ATOM     21  C   UNL     1      27.496   0.313  54.546  1.00  0.00    +0.002 A 
ATOM     22  C   UNL     1      27.208  -0.871  52.473  1.00  0.00    +0.002 A 
ATOM     23  C   UNL     1      27.945  -0.631  53.629  1.00  0.00    +0.000 A 
ENDBRANCH   1  18
TORSDOF 4
ENDMDL
MODEL 8
REMARK VINA RESULT:    -6.685      2.369      5.295
REMARK INTER + INTRA:          -9.454
REMARK INTER:                  -8.126
REMARK INTRA:                  -1.328
REMARK UNBOUND:                -1.205
REMARK SMILES Cc1cc(C)c(N(C(=O)c2ccccn2)c2ccccc2)[nH]1
REMARK SMILES IDX 7 1 6 2 2 3 3 4 22 5 4 6 1 7 5 9 8 10 9 11 10 12 11 13 15 14
REMARK SMILES IDX 12 15 14 16 13 17 16 18 17 19 21 20 18 21 20 22 19 23
REMARK H PARENT 22 8
ROOT
ATOM      1  N   UNL     1      23.191   2.470  51.753  1.00  0.00    -0.261 N 
ENDROOT
BRANCH   1   2
ATOM      2  C   UNL     1      23.616   1.321  52.430  1.00  0.00    +0.120 A 
ATOM      3  C   UNL     1      25.095  -0.290  53.007  1.00  0.00    +0.014 A 
ATOM      4  C   UNL     1      23.893  -0.589  53.610  1.00  0.00    +0.028 A 
ATOM      5  N   UNL     1      24.912   0.868  52.298  1.00  0.00    -0.345 N 
ATOM      6  C   UNL     1      22.951   0.422  53.255  1.00  0.00    -0.008 A 
ATOM      7  C   UNL     1      26.399  -0.994  53.026  1.00  0.00    +0.064 C 
ATOM      8  H   UNL     1      25.605   1.317  51.715  1.00  0.00    +0.168 HD
ATOM      9  C   UNL     1      21.550   0.479  53.753  1.00  0.00    +0.048 C 
ENDBRANCH   1   2
BRANCH   1  10
ATOM     10  C   UNL     1      23.881   3.688  51.916  1.00  0.00    +0.282 C 
ATOM     11  O   UNL     1      23.786   4.415  52.910  1.00  0.00    -0.266 OA
BRANCH  10  12
ATOM     12  C   UNL     1      24.850   4.116  50.853  1.00  0.00    +0.129 A 
ATOM     13  C   UNL     1      24.776   5.415  50.359  1.00  0.00    +0.034 A 
ATOM     14  N   UNL     1      25.811   3.230  50.476  1.00  0.00    -0.251 NA
ATOM     15  C   UNL     1      25.701   5.815  49.399  1.00  0.00    +0.004 A 
ATOM     16  C   UNL     1      26.688   3.647  49.538  1.00  0.00    +0.112 A 
ATOM     17  C   UNL     1      26.672   4.913  48.976  1.00  0.00    +0.020 A 
ENDBRANCH  10  12
ENDBRANCH   1  10
BRANCH   1  18
ATOM     18  C   UNL     1      22.151   2.333  50.767  1.00  0.00    +0.051 A 
ATOM     19  C   UNL     1      22.328   1.584  49.589  1.00  0.00    +0.027 A 
ATOM     20  C   UNL     1      20.907   2.958  50.957  1.00  0.00    +0.027 A 
ATOM     21  C   UNL     1      21.298   1.452  48.651  1.00  0.00    +0.002 A 
ATOM     22  C   UNL     1      19.876   2.824  50.021  1.00  0.00    +0.002 A 
ATOM     23  C   UNL     1      20.070   2.068  48.870  1.00  0.00    +0.000 A 
ENDBRANCH   1  18
TORSDOF 4
ENDMDL
MODEL 9
REMARK VINA RESULT:    -6.555      2.283      4.932
REMARK INTER + INTRA:          -9.293
REMARK INTER:                  -8.199
REMARK INTRA:                  -1.094
REMARK UNBOUND:                -1.205
REMARK SMILES Cc1cc(C)c(N(C(=O)c2ccccn2)c2ccccc2)[nH]1
REMARK SMILES IDX 7 1 6 2 2 3 3 4 22 5 4 6 1 7 5 9 8 10 9 11 10 12 11 13 15 14
REMARK SMILES IDX 12 15 14 16 13 17 16 18 17 19 21 20 18 21 20 22 19 23
REMARK H PARENT 22 8
ROOT
ATOM      1  N   UNL     1      23.091   2.281  51.957  1.00  0.00    -0.261 N 
ENDROOT
BRANCH   1   2
ATOM      2  C   UNL     1      23.129   1.063  52.645  1.00  0.00    +0.120 A 
ATOM      3  C   UNL     1      22.261  -0.624  53.877  1.00  0.00    +0.014 A 
ATOM      4  C   UNL     1      23.608  -0.867  53.722  1.00  0.00    +0.028 A 
ATOM      5  N   UNL     1      21.987   0.546  53.219  1.00  0.00    -0.345 N 
ATOM      6  C   UNL     1      24.168   0.190  52.944  1.00  0.00    -0.008 A 
ATOM      7  C   UNL     1      21.207  -1.382  54.592  1.00  0.00    +0.064 C 
ATOM      8  H   UNL     1      21.087   1.007  53.189  1.00  0.00    +0.168 HD
ATOM      9  C   UNL     1      25.591   0.259  52.518  1.00  0.00    +0.048 C 
ENDBRANCH   1   2
BRANCH   1  10
ATOM     10  C   UNL     1      24.001   3.308  52.278  1.00  0.00    +0.282 C 
ATOM     11  O   UNL     1      24.218   3.713  53.425  1.00  0.00    -0.266 OA
BRANCH  10  12
ATOM     12  C   UNL     1      24.820   3.918  51.178  1.00  0.00    +0.129 A 
ATOM     13  C   UNL     1      25.774   3.133  50.537  1.00  0.00    +0.034 A 
ATOM     14  N   UNL     1      24.535   5.195  50.807  1.00  0.00    -0.251 NA
ATOM     15  C   UNL     1      26.504   3.697  49.494  1.00  0.00    +0.004 A 
ATOM     16  C   UNL     1      25.266   5.713  49.798  1.00  0.00    +0.112 A 
ATOM     17  C   UNL     1      26.251   5.012  49.120  1.00  0.00    +0.020 A 
ENDBRANCH  10  12
ENDBRANCH   1  10
BRANCH   1  18
ATOM     18  C   UNL     1      22.225   2.391  50.812  1.00  0.00    +0.051 A 
ATOM     19  C   UNL     1      21.231   3.383  50.714  1.00  0.00    +0.027 A 
ATOM     20  C   UNL     1      22.349   1.491  49.740  1.00  0.00    +0.027 A 
ATOM     21  C   UNL     1      20.411   3.480  49.585  1.00  0.00    +0.002 A 
ATOM     22  C   UNL     1      21.530   1.589  48.610  1.00  0.00    +0.002 A 
ATOM     23  C   UNL     1      20.563   2.586  48.531  1.00  0.00    +0.000 A 
ENDBRANCH   1  18
TORSDOF 4
ENDMDL
