REMARK SMILES CCN(C)c1ccc(-c2ccc(O)c([N+](=O)[O-])c2)[nH]1
REMARK SMILES IDX 5 1 6 2 7 3 8 4 19 5 3 7 4 8 2 9 1 10 9 11 10 12 18 13 11 14
REMARK SMILES IDX 14 15 12 16 15 17 16 18 17 19 13 20
REMARK H PARENT 19 6 13 21
ROOT
ATOM      1  C   UNL     1      -1.858   0.076  -0.260  1.00  0.00    +0.106 A 
ATOM      2  C   UNL     1      -1.790   1.143  -1.132  1.00  0.00    +0.047 A 
ATOM      3  C   UNL     1      -0.424   1.433  -1.371  1.00  0.00    +0.030 A 
ATOM      4  C   UNL     1       0.339   0.526  -0.656  1.00  0.00    +0.047 A 
ATOM      5  N   UNL     1      -0.558  -0.284   0.009  1.00  0.00    -0.341 N 
ATOM      6  H   UNL     1      -0.297  -1.036   0.626  1.00  0.00    +0.168 HD
ENDROOT
BRANCH   1   7
ATOM      7  N   UNL     1      -2.919  -0.590   0.286  1.00  0.00    -0.362 N 
ATOM      8  C   UNL     1      -2.742  -1.548   1.374  1.00  0.00    +0.145 C 
BRANCH   7   9
ATOM      9  C   UNL     1      -4.284  -0.091   0.076  1.00  0.00    +0.114 C 
ATOM     10  C   UNL     1      -4.633   1.006   1.072  1.00  0.00    +0.027 C 
ENDBRANCH   7   9
ENDBRANCH   1   7
BRANCH   4  11
ATOM     11  C   UNL     1       1.790   0.381  -0.545  1.00  0.00    +0.005 A 
ATOM     12  C   UNL     1       2.618   1.517  -0.580  1.00  0.00    +0.014 A 
ATOM     13  C   UNL     1       2.384  -0.878  -0.411  1.00  0.00    +0.100 A 
ATOM     14  C   UNL     1       4.011   1.407  -0.479  1.00  0.00    +0.054 A 
ATOM     15  C   UNL     1       3.778  -0.973  -0.304  1.00  0.00    +0.311 A 
ATOM     16  C   UNL     1       4.598   0.153  -0.340  1.00  0.00    +0.194 A 
BRANCH  15  17
ATOM     17  N   UNL     1       4.358  -2.289  -0.148  1.00  0.00    +0.066 N 
ATOM     18  O   UNL     1       4.887  -2.553   0.940  1.00  0.00    -0.258 OA
ATOM     19  O   UNL     1       4.217  -3.078  -1.093  1.00  0.00    -0.258 OA
ENDBRANCH  15  17
BRANCH  16  20
ATOM     20  O   UNL     1       5.954   0.038  -0.265  1.00  0.00    -0.502 OA
ATOM     21  H   UNL     1       6.362   0.920  -0.263  1.00  0.00    +0.293 HD
ENDBRANCH  16  20
ENDBRANCH   4  11
TORSDOF 5
