MODEL 1
REMARK VINA RESULT:    -8.432      0.000      0.000
REMARK INTER + INTRA:         -10.715
REMARK INTER:                 -10.158
REMARK INTRA:                  -0.557
REMARK UNBOUND:                -0.557
REMARK SMILES O=[N+]([O-])c1ccc(O)cc1-c1ccc(-c2ccccn2)[nH]1
REMARK SMILES IDX 4 1 5 2 6 3 7 4 9 5 10 6 2 7 1 8 3 9 11 10 12 11 21 12 13 13
REMARK SMILES IDX 14 14 15 16 16 17 20 18 17 19 19 20 18 21 8 22
REMARK H PARENT 21 15 8 23
ROOT
ATOM      1  C   UNL     1      28.267   0.600  53.275  1.00  0.00    +0.278 A 
ATOM      2  C   UNL     1      29.532   0.043  53.521  1.00  0.00    +0.090 A 
ATOM      3  C   UNL     1      29.678  -1.343  53.514  1.00  0.00    +0.053 A 
ATOM      4  C   UNL     1      28.565  -2.141  53.261  1.00  0.00    +0.116 A 
ATOM      5  C   UNL     1      27.309  -1.580  53.020  1.00  0.00    +0.063 A 
ATOM      6  C   UNL     1      27.132  -0.187  53.024  1.00  0.00    +0.079 A 
ENDROOT
BRANCH   1   7
ATOM      7  N   UNL     1      28.182   2.044  53.252  1.00  0.00    +0.063 N 
ATOM      8  O   UNL     1      28.436   2.637  54.310  1.00  0.00    -0.258 OA
ATOM      9  O   UNL     1      27.923   2.577  52.165  1.00  0.00    -0.258 OA
ENDBRANCH   1   7
BRANCH   6  10
ATOM     10  C   UNL     1      25.796   0.361  52.788  1.00  0.00    +0.053 A 
ATOM     11  C   UNL     1      24.644   0.309  53.552  1.00  0.00    +0.029 A 
ATOM     12  N   UNL     1      25.475   1.067  51.651  1.00  0.00    -0.353 N 
ATOM     13  C   UNL     1      23.624   1.005  52.856  1.00  0.00    +0.030 A 
ATOM     14  C   UNL     1      24.158   1.472  51.668  1.00  0.00    +0.065 A 
ATOM     15  H   UNL     1      26.101   1.291  50.888  1.00  0.00    +0.167 HD
BRANCH  14  16
ATOM     16  C   UNL     1      23.597   2.242  50.564  1.00  0.00    +0.086 A 
ATOM     17  C   UNL     1      24.232   3.351  50.019  1.00  0.00    +0.030 A 
ATOM     18  N   UNL     1      22.402   1.780  50.119  1.00  0.00    -0.255 NA
ATOM     19  C   UNL     1      23.615   4.021  48.965  1.00  0.00    +0.004 A 
ATOM     20  C   UNL     1      21.829   2.450  49.095  1.00  0.00    +0.112 A 
ATOM     21  C   UNL     1      22.390   3.564  48.492  1.00  0.00    +0.020 A 
ENDBRANCH  14  16
ENDBRANCH   6  10
BRANCH   4  22
ATOM     22  O   UNL     1      28.659  -3.501  53.244  1.00  0.00    -0.508 OA
ATOM     23  H   UNL     1      28.824  -3.799  52.334  1.00  0.00    +0.293 HD
ENDBRANCH   4  22
TORSDOF 4
ENDMDL
MODEL 2
REMARK VINA RESULT:    -8.383      2.084      3.362
REMARK INTER + INTRA:         -10.655
REMARK INTER:                 -10.453
REMARK INTRA:                  -0.202
REMARK UNBOUND:                -0.557
REMARK SMILES O=[N+]([O-])c1ccc(O)cc1-c1ccc(-c2ccccn2)[nH]1
REMARK SMILES IDX 4 1 5 2 6 3 7 4 9 5 10 6 2 7 1 8 3 9 11 10 12 11 21 12 13 13
REMARK SMILES IDX 14 14 15 16 16 17 20 18 17 19 19 20 18 21 8 22
REMARK H PARENT 21 15 8 23
ROOT
ATOM      1  C   UNL     1      27.945   0.474  53.267  1.00  0.00    +0.278 A 
ATOM      2  C   UNL     1      29.209  -0.050  53.581  1.00  0.00    +0.090 A 
ATOM      3  C   UNL     1      29.410  -1.428  53.517  1.00  0.00    +0.053 A 
ATOM      4  C   UNL     1      28.351  -2.250  53.143  1.00  0.00    +0.116 A 
ATOM      5  C   UNL     1      27.095  -1.723  52.835  1.00  0.00    +0.063 A 
ATOM      6  C   UNL     1      26.864  -0.339  52.893  1.00  0.00    +0.079 A 
ENDROOT
BRANCH   1   7
ATOM      7  N   UNL     1      27.806   1.913  53.308  1.00  0.00    +0.063 N 
ATOM      8  O   UNL     1      28.164   2.538  52.300  1.00  0.00    -0.258 OA
ATOM      9  O   UNL     1      27.285   2.402  54.319  1.00  0.00    -0.258 OA
ENDBRANCH   1   7
BRANCH   6  10
ATOM     10  C   UNL     1      25.528   0.173  52.584  1.00  0.00    +0.053 A 
ATOM     11  C   UNL     1      25.123   1.269  51.844  1.00  0.00    +0.029 A 
ATOM     12  N   UNL     1      24.379  -0.429  53.046  1.00  0.00    -0.353 N 
ATOM     13  C   UNL     1      23.706   1.311  51.862  1.00  0.00    +0.030 A 
ATOM     14  C   UNL     1      23.256   0.244  52.619  1.00  0.00    +0.065 A 
ATOM     15  H   UNL     1      24.328  -1.265  53.614  1.00  0.00    +0.167 HD
BRANCH  14  16
ATOM     16  C   UNL     1      21.922  -0.219  52.984  1.00  0.00    +0.086 A 
ATOM     17  C   UNL     1      21.695  -1.149  53.991  1.00  0.00    +0.030 A 
ATOM     18  N   UNL     1      20.924   0.338  52.253  1.00  0.00    -0.255 NA
ATOM     19  C   UNL     1      20.384  -1.528  54.266  1.00  0.00    +0.004 A 
ATOM     20  C   UNL     1      19.662  -0.050  52.543  1.00  0.00    +0.112 A 
ATOM     21  C   UNL     1      19.346  -0.969  53.530  1.00  0.00    +0.020 A 
ENDBRANCH  14  16
ENDBRANCH   6  10
BRANCH   4  22
ATOM     22  O   UNL     1      28.500  -3.603  53.067  1.00  0.00    -0.508 OA
ATOM     23  H   UNL     1      27.774  -3.976  52.539  1.00  0.00    +0.293 HD
ENDBRANCH   4  22
TORSDOF 4
ENDMDL
MODEL 3
REMARK VINA RESULT:    -7.588      1.987      3.565
REMARK INTER + INTRA:          -9.697
REMARK INTER:                  -9.246
REMARK INTRA:                  -0.451
REMARK UNBOUND:                -0.557
REMARK SMILES O=[N+]([O-])c1ccc(O)cc1-c1ccc(-c2ccccn2)[nH]1
REMARK SMILES IDX 4 1 5 2 6 3 7 4 9 5 10 6 2 7 1 8 3 9 11 10 12 11 21 12 13 13
REMARK SMILES IDX 14 14 15 16 16 17 20 18 17 19 19 20 18 21 8 22
REMARK H PARENT 21 15 8 23
ROOT
ATOM      1  C   UNL     1      28.083  -1.048  53.268  1.00  0.00    +0.278 A 
ATOM      2  C   UNL     1      29.466  -0.824  53.168  1.00  0.00    +0.090 A 
ATOM      3  C   UNL     1      29.997   0.373  53.645  1.00  0.00    +0.053 A 
ATOM      4  C   UNL     1      29.143   1.317  54.208  1.00  0.00    +0.116 A 
ATOM      5  C   UNL     1      27.769   1.089  54.301  1.00  0.00    +0.063 A 
ATOM      6  C   UNL     1      27.206  -0.107  53.828  1.00  0.00    +0.079 A 
ENDROOT
BRANCH   1   7
ATOM      7  N   UNL     1      27.592  -2.325  52.798  1.00  0.00    +0.063 N 
ATOM      8  O   UNL     1      26.629  -2.302  52.018  1.00  0.00    -0.258 OA
ATOM      9  O   UNL     1      28.209  -3.336  53.162  1.00  0.00    -0.258 OA
ENDBRANCH   1   7
BRANCH   6  10
ATOM     10  C   UNL     1      25.758  -0.298  53.924  1.00  0.00    +0.053 A 
ATOM     11  C   UNL     1      24.986  -0.925  54.885  1.00  0.00    +0.029 A 
ATOM     12  N   UNL     1      24.884   0.161  52.965  1.00  0.00    -0.353 N 
ATOM     13  C   UNL     1      23.628  -0.827  54.490  1.00  0.00    +0.030 A 
ATOM     14  C   UNL     1      23.581  -0.147  53.286  1.00  0.00    +0.065 A 
ATOM     15  H   UNL     1      25.130   0.674  52.127  1.00  0.00    +0.167 HD
BRANCH  14  16
ATOM     16  C   UNL     1      22.481   0.248  52.413  1.00  0.00    +0.086 A 
ATOM     17  C   UNL     1      21.164  -0.129  52.641  1.00  0.00    +0.030 A 
ATOM     18  N   UNL     1      22.860   1.014  51.359  1.00  0.00    -0.255 NA
ATOM     19  C   UNL     1      20.184   0.299  51.749  1.00  0.00    +0.004 A 
ATOM     20  C   UNL     1      21.886   1.414  50.512  1.00  0.00    +0.112 A 
ATOM     21  C   UNL     1      20.549   1.085  50.663  1.00  0.00    +0.020 A 
ENDBRANCH  14  16
ENDBRANCH   6  10
BRANCH   4  22
ATOM     22  O   UNL     1      29.618   2.502  54.687  1.00  0.00    -0.508 OA
ATOM     23  H   UNL     1      30.499   2.362  55.073  1.00  0.00    +0.293 HD
ENDBRANCH   4  22
TORSDOF 4
ENDMDL
MODEL 4
REMARK VINA RESULT:    -7.517      3.572      5.081
REMARK INTER + INTRA:          -9.612
REMARK INTER:                  -9.146
REMARK INTRA:                  -0.466
REMARK UNBOUND:                -0.557
REMARK SMILES O=[N+]([O-])c1ccc(O)cc1-c1ccc(-c2ccccn2)[nH]1
REMARK SMILES IDX 4 1 5 2 6 3 7 4 9 5 10 6 2 7 1 8 3 9 11 10 12 11 21 12 13 13
REMARK SMILES IDX 14 14 15 16 16 17 20 18 17 19 19 20 18 21 8 22
REMARK H PARENT 21 15 8 23
ROOT
ATOM      1  C   UNL     1      22.156   0.475  52.595  1.00  0.00    +0.278 A 
ATOM      2  C   UNL     1      21.072  -0.150  53.232  1.00  0.00    +0.090 A 
ATOM      3  C   UNL     1      21.313  -0.991  54.317  1.00  0.00    +0.053 A 
ATOM      4  C   UNL     1      22.623  -1.190  54.743  1.00  0.00    +0.116 A 
ATOM      5  C   UNL     1      23.697  -0.567  54.103  1.00  0.00    +0.063 A 
ATOM      6  C   UNL     1      23.484   0.284  53.007  1.00  0.00    +0.079 A 
ENDROOT
BRANCH   1   7
ATOM      7  N   UNL     1      21.844   1.371  51.504  1.00  0.00    +0.063 N 
ATOM      8  O   UNL     1      21.856   0.889  50.363  1.00  0.00    -0.258 OA
ATOM      9  O   UNL     1      21.532   2.533  51.798  1.00  0.00    -0.258 OA
ENDBRANCH   1   7
BRANCH   6  10
ATOM     10  C   UNL     1      24.637   0.901  52.350  1.00  0.00    +0.053 A 
ATOM     11  C   UNL     1      25.961   0.507  52.279  1.00  0.00    +0.029 A 
ATOM     12  N   UNL     1      24.547   2.083  51.651  1.00  0.00    -0.353 N 
ATOM     13  C   UNL     1      26.666   1.472  51.517  1.00  0.00    +0.030 A 
ATOM     14  C   UNL     1      25.769   2.452  51.132  1.00  0.00    +0.065 A 
ATOM     15  H   UNL     1      23.708   2.630  51.505  1.00  0.00    +0.167 HD
BRANCH  14  16
ATOM     16  C   UNL     1      25.910   3.674  50.348  1.00  0.00    +0.086 A 
ATOM     17  C   UNL     1      26.921   3.856  49.412  1.00  0.00    +0.030 A 
ATOM     18  N   UNL     1      24.970   4.615  50.614  1.00  0.00    -0.255 NA
ATOM     19  C   UNL     1      26.972   5.059  48.712  1.00  0.00    +0.004 A 
ATOM     20  C   UNL     1      25.046   5.770  49.919  1.00  0.00    +0.112 A 
ATOM     21  C   UNL     1      26.018   6.037  48.968  1.00  0.00    +0.020 A 
ENDBRANCH  14  16
ENDBRANCH   6  10
BRANCH   4  22
ATOM     22  O   UNL     1      22.908  -2.004  55.799  1.00  0.00    -0.508 OA
ATOM     23  H   UNL     1      22.090  -2.185  56.292  1.00  0.00    +0.293 HD
ENDBRANCH   4  22
TORSDOF 4
ENDMDL
MODEL 5
REMARK VINA RESULT:    -7.445      2.824      4.315
REMARK INTER + INTRA:          -9.525
REMARK INTER:                  -9.124
REMARK INTRA:                  -0.402
REMARK UNBOUND:                -0.557
REMARK SMILES O=[N+]([O-])c1ccc(O)cc1-c1ccc(-c2ccccn2)[nH]1
REMARK SMILES IDX 4 1 5 2 6 3 7 4 9 5 10 6 2 7 1 8 3 9 11 10 12 11 21 12 13 13
REMARK SMILES IDX 14 14 15 16 16 17 20 18 17 19 19 20 18 21 8 22
REMARK H PARENT 21 15 8 23
ROOT
ATOM      1  C   UNL     1      24.531  -0.032  53.558  1.00  0.00    +0.278 A 
ATOM      2  C   UNL     1      24.523  -0.850  54.699  1.00  0.00    +0.090 A 
ATOM      3  C   UNL     1      23.307  -1.324  55.187  1.00  0.00    +0.053 A 
ATOM      4  C   UNL     1      22.130  -0.976  54.530  1.00  0.00    +0.116 A 
ATOM      5  C   UNL     1      22.145  -0.160  53.398  1.00  0.00    +0.063 A 
ATOM      6  C   UNL     1      23.355   0.335  52.885  1.00  0.00    +0.079 A 
ENDROOT
BRANCH   1   7
ATOM      7  N   UNL     1      25.823   0.396  53.070  1.00  0.00    +0.063 N 
ATOM      8  O   UNL     1      26.322   1.395  53.608  1.00  0.00    -0.258 OA
ATOM      9  O   UNL     1      26.357  -0.302  52.197  1.00  0.00    -0.258 OA
ENDBRANCH   1   7
BRANCH   6  10
ATOM     10  C   UNL     1      23.327   1.205  51.709  1.00  0.00    +0.053 A 
ATOM     11  C   UNL     1      22.369   1.373  50.725  1.00  0.00    +0.029 A 
ATOM     12  N   UNL     1      24.362   2.053  51.390  1.00  0.00    -0.353 N 
ATOM     13  C   UNL     1      22.846   2.346  49.811  1.00  0.00    +0.030 A 
ATOM     14  C   UNL     1      24.094   2.761  50.239  1.00  0.00    +0.065 A 
ATOM     15  H   UNL     1      25.218   2.178  51.916  1.00  0.00    +0.167 HD
BRANCH  14  16
ATOM     16  C   UNL     1      25.052   3.726  49.713  1.00  0.00    +0.086 A 
ATOM     17  C   UNL     1      26.396   3.428  49.521  1.00  0.00    +0.030 A 
ATOM     18  N   UNL     1      24.515   4.939  49.428  1.00  0.00    -0.255 NA
ATOM     19  C   UNL     1      27.232   4.419  49.013  1.00  0.00    +0.004 A 
ATOM     20  C   UNL     1      25.352   5.879  48.936  1.00  0.00    +0.112 A 
ATOM     21  C   UNL     1      26.703   5.669  48.714  1.00  0.00    +0.020 A 
ENDBRANCH  14  16
ENDBRANCH   6  10
BRANCH   4  22
ATOM     22  O   UNL     1      20.917  -1.416  54.972  1.00  0.00    -0.508 OA
ATOM     23  H   UNL     1      20.659  -0.909  55.759  1.00  0.00    +0.293 HD
ENDBRANCH   4  22
TORSDOF 4
ENDMDL
MODEL 6
REMARK VINA RESULT:    -7.386      3.595      4.579
REMARK INTER + INTRA:          -9.453
REMARK INTER:                  -8.949
REMARK INTRA:                  -0.505
REMARK UNBOUND:                -0.557
REMARK SMILES O=[N+]([O-])c1ccc(O)cc1-c1ccc(-c2ccccn2)[nH]1
REMARK SMILES IDX 4 1 5 2 6 3 7 4 9 5 10 6 2 7 1 8 3 9 11 10 12 11 21 12 13 13
REMARK SMILES IDX 14 14 15 16 16 17 20 18 17 19 19 20 18 21 8 22
REMARK H PARENT 21 15 8 23
ROOT
ATOM      1  C   UNL     1      24.888   1.049  52.390  1.00  0.00    +0.278 A 
ATOM      2  C   UNL     1      26.204   1.359  52.010  1.00  0.00    +0.090 A 
ATOM      3  C   UNL     1      27.242   0.514  52.401  1.00  0.00    +0.053 A 
ATOM      4  C   UNL     1      26.947  -0.616  53.158  1.00  0.00    +0.116 A 
ATOM      5  C   UNL     1      25.636  -0.916  53.535  1.00  0.00    +0.063 A 
ATOM      6  C   UNL     1      24.572  -0.082  53.157  1.00  0.00    +0.079 A 
ENDROOT
BRANCH   1   7
ATOM      7  N   UNL     1      23.847   1.936  51.920  1.00  0.00    +0.063 N 
ATOM      8  O   UNL     1      23.386   1.710  50.792  1.00  0.00    -0.258 OA
ATOM      9  O   UNL     1      23.455   2.813  52.702  1.00  0.00    -0.258 OA
ENDBRANCH   1   7
BRANCH   6  10
ATOM     10  C   UNL     1      23.215  -0.420  53.590  1.00  0.00    +0.053 A 
ATOM     11  C   UNL     1      22.747  -0.962  54.773  1.00  0.00    +0.029 A 
ATOM     12  N   UNL     1      22.113  -0.230  52.789  1.00  0.00    -0.353 N 
ATOM     13  C   UNL     1      21.339  -1.088  54.671  1.00  0.00    +0.030 A 
ATOM     14  C   UNL     1      20.957  -0.627  53.424  1.00  0.00    +0.065 A 
ATOM     15  H   UNL     1      22.111   0.161  51.855  1.00  0.00    +0.167 HD
BRANCH  14  16
ATOM     16  C   UNL     1      19.662  -0.512  52.764  1.00  0.00    +0.086 A 
ATOM     17  C   UNL     1      19.475   0.209  51.590  1.00  0.00    +0.030 A 
ATOM     18  N   UNL     1      18.657  -1.168  53.397  1.00  0.00    -0.255 NA
ATOM     19  C   UNL     1      18.198   0.259  51.036  1.00  0.00    +0.004 A 
ATOM     20  C   UNL     1      17.431  -1.100  52.835  1.00  0.00    +0.112 A 
ATOM     21  C   UNL     1      17.155  -0.407  51.668  1.00  0.00    +0.020 A 
ENDBRANCH  14  16
ENDBRANCH   6  10
BRANCH   4  22
ATOM     22  O   UNL     1      27.929  -1.471  53.564  1.00  0.00    -0.508 OA
ATOM     23  H   UNL     1      28.212  -2.014  52.810  1.00  0.00    +0.293 HD
ENDBRANCH   4  22
TORSDOF 4
ENDMDL
MODEL 7
REMARK VINA RESULT:    -7.330      3.181      6.939
REMARK INTER + INTRA:          -9.386
REMARK INTER:                  -8.694
REMARK INTRA:                  -0.693
REMARK UNBOUND:                -0.557
REMARK SMILES O=[N+]([O-])c1ccc(O)cc1-c1ccc(-c2ccccn2)[nH]1
REMARK SMILES IDX 4 1 5 2 6 3 7 4 9 5 10 6 2 7 1 8 3 9 11 10 12 11 21 12 13 13
REMARK SMILES IDX 14 14 15 16 16 17 20 18 17 19 19 20 18 21 8 22
REMARK H PARENT 21 15 8 23
ROOT
ATOM      1  C   UNL     1      21.873   0.436  52.367  1.00  0.00    +0.278 A 
ATOM      2  C   UNL     1      20.647   0.328  51.690  1.00  0.00    +0.090 A 
ATOM      3  C   UNL     1      20.504   0.932  50.442  1.00  0.00    +0.053 A 
ATOM      4  C   UNL     1      21.580   1.626  49.897  1.00  0.00    +0.116 A 
ATOM      5  C   UNL     1      22.795   1.732  50.577  1.00  0.00    +0.063 A 
ATOM      6  C   UNL     1      22.967   1.136  51.836  1.00  0.00    +0.079 A 
ENDROOT
BRANCH   1   7
ATOM      7  N   UNL     1      21.980  -0.246  53.637  1.00  0.00    +0.063 N 
ATOM      8  O   UNL     1      21.326   0.222  54.581  1.00  0.00    -0.258 OA
ATOM      9  O   UNL     1      22.666  -1.277  53.670  1.00  0.00    -0.258 OA
ENDBRANCH   1   7
BRANCH   6  10
ATOM     10  C   UNL     1      24.249   1.288  52.526  1.00  0.00    +0.053 A 
ATOM     11  C   UNL     1      24.741   2.311  53.316  1.00  0.00    +0.029 A 
ATOM     12  N   UNL     1      25.241   0.335  52.464  1.00  0.00    -0.353 N 
ATOM     13  C   UNL     1      26.047   1.952  53.736  1.00  0.00    +0.030 A 
ATOM     14  C   UNL     1      26.346   0.715  53.194  1.00  0.00    +0.065 A 
ATOM     15  H   UNL     1      25.195  -0.547  51.969  1.00  0.00    +0.167 HD
BRANCH  14  16
ATOM     16  C   UNL     1      27.520  -0.145  53.276  1.00  0.00    +0.086 A 
ATOM     17  C   UNL     1      28.792   0.338  53.560  1.00  0.00    +0.030 A 
ATOM     18  N   UNL     1      27.262  -1.458  53.049  1.00  0.00    -0.255 NA
ATOM     19  C   UNL     1      29.851  -0.564  53.617  1.00  0.00    +0.004 A 
ATOM     20  C   UNL     1      28.310  -2.308  53.111  1.00  0.00    +0.112 A 
ATOM     21  C   UNL     1      29.608  -1.914  53.389  1.00  0.00    +0.020 A 
ENDBRANCH  14  16
ENDBRANCH   6  10
BRANCH   4  22
ATOM     22  O   UNL     1      21.486   2.233  48.679  1.00  0.00    -0.508 OA
ATOM     23  H   UNL     1      21.250   1.570  48.009  1.00  0.00    +0.293 HD
ENDBRANCH   4  22
TORSDOF 4
ENDMDL
MODEL 8
REMARK VINA RESULT:    -7.240      3.432      6.820
REMARK INTER + INTRA:          -9.279
REMARK INTER:                  -8.802
REMARK INTRA:                  -0.477
REMARK UNBOUND:                -0.557
REMARK SMILES O=[N+]([O-])c1ccc(O)cc1-c1ccc(-c2ccccn2)[nH]1
REMARK SMILES IDX 4 1 5 2 6 3 7 4 9 5 10 6 2 7 1 8 3 9 11 10 12 11 21 12 13 13
REMARK SMILES IDX 14 14 15 16 16 17 20 18 17 19 19 20 18 21 8 22
REMARK H PARENT 21 15 8 23
ROOT
ATOM      1  C   UNL     1      21.633   1.228  51.720  1.00  0.00    +0.278 A 
ATOM      2  C   UNL     1      20.275   0.933  51.516  1.00  0.00    +0.090 A 
ATOM      3  C   UNL     1      19.640   0.030  52.366  1.00  0.00    +0.053 A 
ATOM      4  C   UNL     1      20.367  -0.556  53.399  1.00  0.00    +0.116 A 
ATOM      5  C   UNL     1      21.717  -0.260  53.594  1.00  0.00    +0.063 A 
ATOM      6  C   UNL     1      22.384   0.643  52.751  1.00  0.00    +0.079 A 
ENDROOT
BRANCH   1   7
ATOM      7  N   UNL     1      22.229   2.203  50.835  1.00  0.00    +0.063 N 
ATOM      8  O   UNL     1      22.801   1.768  49.825  1.00  0.00    -0.258 OA
ATOM      9  O   UNL     1      22.071   3.398  51.121  1.00  0.00    -0.258 OA
ENDBRANCH   1   7
BRANCH   6  10
ATOM     10  C   UNL     1      23.805   0.910  52.976  1.00  0.00    +0.053 A 
ATOM     11  C   UNL     1      24.481   2.092  53.218  1.00  0.00    +0.029 A 
ATOM     12  N   UNL     1      24.756  -0.085  52.966  1.00  0.00    -0.353 N 
ATOM     13  C   UNL     1      25.858   1.789  53.362  1.00  0.00    +0.030 A 
ATOM     14  C   UNL     1      26.015   0.424  53.200  1.00  0.00    +0.065 A 
ATOM     15  H   UNL     1      24.589  -1.073  52.823  1.00  0.00    +0.167 HD
BRANCH  14  16
ATOM     16  C   UNL     1      27.181  -0.452  53.240  1.00  0.00    +0.086 A 
ATOM     17  C   UNL     1      28.445  -0.009  53.610  1.00  0.00    +0.030 A 
ATOM     18  N   UNL     1      26.921  -1.735  52.883  1.00  0.00    -0.255 NA
ATOM     19  C   UNL     1      29.495  -0.923  53.617  1.00  0.00    +0.004 A 
ATOM     20  C   UNL     1      27.961  -2.597  52.899  1.00  0.00    +0.112 A 
ATOM     21  C   UNL     1      29.252  -2.243  53.255  1.00  0.00    +0.020 A 
ENDBRANCH  14  16
ENDBRANCH   6  10
BRANCH   4  22
ATOM     22  O   UNL     1      19.788  -1.445  54.255  1.00  0.00    -0.508 OA
ATOM     23  H   UNL     1      18.822  -1.410  54.149  1.00  0.00    +0.293 HD
ENDBRANCH   4  22
TORSDOF 4
ENDMDL
MODEL 9
REMARK VINA RESULT:    -7.151      4.455      7.382
REMARK INTER + INTRA:          -9.171
REMARK INTER:                  -8.779
REMARK INTRA:                  -0.393
REMARK UNBOUND:                -0.557
REMARK SMILES O=[N+]([O-])c1ccc(O)cc1-c1ccc(-c2ccccn2)[nH]1
REMARK SMILES IDX 4 1 5 2 6 3 7 4 9 5 10 6 2 7 1 8 3 9 11 10 12 11 21 12 13 13
REMARK SMILES IDX 14 14 15 16 16 17 20 18 17 19 19 20 18 21 8 22
REMARK H PARENT 21 15 8 23
ROOT
ATOM      1  C   UNL     1      20.169   0.391  52.059  1.00  0.00    +0.278 A 
ATOM      2  C   UNL     1      18.925   0.538  51.425  1.00  0.00    +0.090 A 
ATOM      3  C   UNL     1      17.840  -0.212  51.874  1.00  0.00    +0.053 A 
ATOM      4  C   UNL     1      18.016  -1.088  52.941  1.00  0.00    +0.116 A 
ATOM      5  C   UNL     1      19.256  -1.232  53.565  1.00  0.00    +0.063 A 
ATOM      6  C   UNL     1      20.368  -0.491  53.132  1.00  0.00    +0.079 A 
ENDROOT
BRANCH   1   7
ATOM      7  N   UNL     1      21.249   1.225  51.581  1.00  0.00    +0.063 N 
ATOM      8  O   UNL     1      21.874   0.819  50.590  1.00  0.00    -0.258 OA
ATOM      9  O   UNL     1      21.427   2.306  52.159  1.00  0.00    -0.258 OA
ENDBRANCH   1   7
BRANCH   6  10
ATOM     10  C   UNL     1      21.656  -0.687  53.799  1.00  0.00    +0.053 A 
ATOM     11  C   UNL     1      21.973  -1.276  55.009  1.00  0.00    +0.029 A 
ATOM     12  N   UNL     1      22.845  -0.256  53.254  1.00  0.00    -0.353 N 
ATOM     13  C   UNL     1      23.379  -1.199  55.179  1.00  0.00    +0.030 A 
ATOM     14  C   UNL     1      23.910  -0.557  54.075  1.00  0.00    +0.065 A 
ATOM     15  H   UNL     1      22.962   0.212  52.364  1.00  0.00    +0.167 HD
BRANCH  14  16
ATOM     16  C   UNL     1      25.271  -0.198  53.696  1.00  0.00    +0.086 A 
ATOM     17  C   UNL     1      25.602   0.284  52.436  1.00  0.00    +0.030 A 
ATOM     18  N   UNL     1      26.185  -0.378  54.683  1.00  0.00    -0.255 NA
ATOM     19  C   UNL     1      26.932   0.600  52.171  1.00  0.00    +0.004 A 
ATOM     20  C   UNL     1      27.467  -0.063  54.395  1.00  0.00    +0.112 A 
ATOM     21  C   UNL     1      27.885   0.424  53.168  1.00  0.00    +0.020 A 
ENDBRANCH  14  16
ENDBRANCH   6  10
BRANCH   4  22
ATOM     22  O   UNL     1      16.983  -1.842  53.414  1.00  0.00    -0.508 OA
ATOM     23  H   UNL     1      16.980  -1.808  54.385  1.00  0.00    +0.293 HD
ENDBRANCH   4  22
TORSDOF 4
ENDMDL
