REMARK SMILES Cc1cccc(N(C(=O)c2ccccn2)c2[nH]c(C)cc2C)c1
REMARK SMILES IDX 7 1 6 2 2 3 3 4 23 5 4 6 5 7 1 8 8 9 9 10 10 11 11 12 15 13
REMARK SMILES IDX 12 14 14 15 13 16 16 17 17 18 21 19 18 20 20 21 22 23 19 24
REMARK H PARENT 17 22
ROOT
ATOM      1  N   UNL     1      -0.057  -0.544  -0.238  1.00  0.00    -0.261 N 
ENDROOT
BRANCH   1   2
ATOM      2  C   UNL     1      -1.395  -1.007  -0.514  1.00  0.00    +0.051 A 
ATOM      3  C   UNL     1      -3.269  -2.503   0.004  1.00  0.00    -0.049 A 
ATOM      4  C   UNL     1      -4.031  -1.902  -1.001  1.00  0.00    +0.003 A 
ATOM      5  C   UNL     1      -1.962  -2.045   0.242  1.00  0.00    +0.030 A 
ATOM      6  C   UNL     1      -3.483  -0.883  -1.776  1.00  0.00    +0.002 A 
ATOM      7  C   UNL     1      -2.177  -0.445  -1.539  1.00  0.00    +0.027 A 
ATOM      8  C   UNL     1      -3.848  -3.595   0.854  1.00  0.00    +0.044 C 
ENDBRANCH   1   2
BRANCH   1   9
ATOM      9  C   UNL     1       0.926  -1.426   0.266  1.00  0.00    +0.282 C 
ATOM     10  O   UNL     1       0.866  -2.655   0.175  1.00  0.00    -0.266 OA
BRANCH   9  11
ATOM     11  C   UNL     1       2.067  -0.858   1.058  1.00  0.00    +0.129 A 
ATOM     12  C   UNL     1       1.834   0.077   2.064  1.00  0.00    +0.034 A 
ATOM     13  N   UNL     1       3.298  -1.372   0.791  1.00  0.00    -0.251 NA
ATOM     14  C   UNL     1       2.919   0.536   2.806  1.00  0.00    +0.004 A 
ATOM     15  C   UNL     1       4.326  -0.910   1.534  1.00  0.00    +0.112 A 
ATOM     16  C   UNL     1       4.189   0.036   2.536  1.00  0.00    +0.020 A 
ENDBRANCH   9  11
ENDBRANCH   1   9
BRANCH   1  17
ATOM     17  C   UNL     1       0.264   0.778  -0.578  1.00  0.00    +0.120 A 
ATOM     18  N   UNL     1      -0.607   1.811  -0.292  1.00  0.00    -0.345 N 
ATOM     19  C   UNL     1       1.385   1.345  -1.172  1.00  0.00    -0.008 A 
ATOM     20  C   UNL     1      -0.053   3.018  -0.626  1.00  0.00    +0.014 A 
ATOM     21  C   UNL     1       1.180   2.757  -1.180  1.00  0.00    +0.028 A 
ATOM     22  H   UNL     1      -1.511   1.683   0.143  1.00  0.00    +0.168 HD
ATOM     23  C   UNL     1       2.571   0.669  -1.768  1.00  0.00    +0.048 C 
ATOM     24  C   UNL     1      -0.768   4.296  -0.397  1.00  0.00    +0.064 C 
ENDBRANCH   1  17
TORSDOF 4
