REMARK SMILES Oc1ccc(N(CC/N=N/Nc2ccc3ncnc(-c4cccc(Cl)c4)c3c2)c2ccccn2)cc1
REMARK SMILES IDX 8 1 7 2 6 3 5 4 2 5 3 6 36 7 4 8 35 9 1 10 29 12 30 13 34 14
REMARK SMILES IDX 31 15 33 16 32 17 9 18 10 19 11 20 12 22 13 23 28 24 14 25
REMARK SMILES IDX 27 26 15 27 19 28 16 29 18 30 17 31 20 32 21 33 26 34 22 35
REMARK SMILES IDX 24 36 23 37 25 38
REMARK H PARENT 1 11 11 21
ROOT
ATOM      1  C   UNL     1       2.407  -1.978   1.049  1.00  0.00    +0.191 C 
ENDROOT
BRANCH   1   2
ATOM      2  C   UNL     1       3.406  -1.001   1.685  1.00  0.00    +0.150 C 
BRANCH   2   3
ATOM      3  N   UNL     1       3.811   0.082   0.758  1.00  0.00    -0.324 N 
BRANCH   3   4
ATOM      4  C   UNL     1       3.752   1.371   1.346  1.00  0.00    +0.043 A 
ATOM      5  C   UNL     1       3.600   3.920   2.513  1.00  0.00    +0.115 A 
ATOM      6  C   UNL     1       4.837   3.411   2.138  1.00  0.00    +0.048 A 
ATOM      7  C   UNL     1       2.441   3.181   2.321  1.00  0.00    +0.048 A 
ATOM      8  C   UNL     1       4.909   2.140   1.558  1.00  0.00    +0.030 A 
ATOM      9  C   UNL     1       2.518   1.912   1.741  1.00  0.00    +0.030 A 
BRANCH   5  10
ATOM     10  O   UNL     1       3.481   5.154   3.080  1.00  0.00    -0.508 OA
ATOM     11  H   UNL     1       4.363   5.556   3.135  1.00  0.00    +0.293 HD
ENDBRANCH   5  10
ENDBRANCH   3   4
BRANCH   3  12
ATOM     12  C   UNL     1       4.716  -0.324  -0.257  1.00  0.00    +0.132 A 
ATOM     13  C   UNL     1       5.054   0.571  -1.279  1.00  0.00    +0.047 A 
ATOM     14  N   UNL     1       5.215  -1.584  -0.263  1.00  0.00    -0.239 NA
ATOM     15  C   UNL     1       5.928   0.183  -2.293  1.00  0.00    +0.005 A 
ATOM     16  C   UNL     1       6.063  -1.940  -1.255  1.00  0.00    +0.113 A 
ATOM     17  C   UNL     1       6.450  -1.099  -2.280  1.00  0.00    +0.020 A 
ENDBRANCH   3  12
ENDBRANCH   2   3
ENDBRANCH   1   2
BRANCH   1  18
ATOM     18  N   UNL     1       1.129  -1.287   0.800  1.00  0.00    -0.169 NA
ATOM     19  N   UNL     1       0.148  -2.026   1.002  1.00  0.00    -0.075 NA
BRANCH  19  20
ATOM     20  N   UNL     1      -0.932  -1.273   0.726  1.00  0.00    -0.260 N 
ATOM     21  H   UNL     1      -0.740  -0.468   0.139  1.00  0.00    +0.192 HD
BRANCH  20  22
ATOM     22  C   UNL     1      -2.168  -1.905   0.517  1.00  0.00    +0.059 A 
ATOM     23  C   UNL     1      -2.426  -3.214   0.926  1.00  0.00    +0.030 A 
ATOM     24  C   UNL     1      -3.235  -1.170  -0.011  1.00  0.00    +0.040 A 
ATOM     25  C   UNL     1      -3.695  -3.782   0.758  1.00  0.00    +0.031 A 
ATOM     26  C   UNL     1      -4.525  -1.743  -0.180  1.00  0.00    +0.029 A 
ATOM     27  C   UNL     1      -4.750  -3.070   0.206  1.00  0.00    +0.074 A 
ATOM     28  C   UNL     1      -5.645  -1.089  -0.718  1.00  0.00    +0.082 A 
ATOM     29  N   UNL     1      -5.935  -3.675   0.072  1.00  0.00    -0.236 NA
ATOM     30  N   UNL     1      -6.849  -1.682  -0.867  1.00  0.00    -0.236 NA
ATOM     31  C   UNL     1      -6.929  -2.952  -0.459  1.00  0.00    +0.223 A 
BRANCH  28  32
ATOM     32  C   UNL     1      -5.615   0.306  -1.177  1.00  0.00    +0.002 A 
ATOM     33  C   UNL     1      -5.757   1.367  -0.266  1.00  0.00    +0.010 A 
ATOM     34  C   UNL     1      -5.450   0.606  -2.538  1.00  0.00    +0.030 A 
ATOM     35  C   UNL     1      -5.718   2.694  -0.701  1.00  0.00    +0.002 A 
ATOM     36  C   UNL     1      -5.411   1.932  -2.966  1.00  0.00    +0.041 A 
ATOM     37  C   UNL     1      -5.542   2.977  -2.054  1.00  0.00    +0.020 A 
ATOM     38 Cl   UNL     1      -5.193   2.282  -4.638  1.00  0.00    -0.084 Cl
ENDBRANCH  28  32
ENDBRANCH  20  22
ENDBRANCH  19  20
ENDBRANCH   1  18
TORSDOF 9
