REMARK SMILES Cc1[nH]c(C=C(N)C(C#N)=C(C#N)C#N)c(C)c1-c1cccc(Cl)c1
REMARK SMILES IDX 1 1 2 2 3 3 4 4 16 5 17 6 18 7 19 9 20 10 25 11 21 12 23 13
REMARK SMILES IDX 22 14 24 15 5 16 6 17 7 18 8 21 9 22 11 23 10 24 12 25 14 26
REMARK SMILES IDX 13 27 15 28
REMARK H PARENT 3 8 7 19 7 20
ROOT
ATOM      1  C   UNL     1       2.305   2.374   1.579  1.00  0.00    +0.065 C 
ATOM      2  C   UNL     1       1.329   1.358   1.102  1.00  0.00    +0.020 A 
ATOM      3  N   UNL     1      -0.011   1.474   1.382  1.00  0.00    -0.358 N 
ATOM      4  C   UNL     1      -0.710   0.449   0.795  1.00  0.00    +0.044 A 
ATOM      5  C   UNL     1       0.204  -0.387   0.172  1.00  0.00    -0.018 A 
ATOM      6  C   UNL     1      -0.089  -1.663  -0.544  1.00  0.00    +0.047 C 
ATOM      7  C   UNL     1       1.496   0.200   0.361  1.00  0.00    +0.006 A 
ATOM      8  H   UNL     1      -0.423   2.232   1.911  1.00  0.00    +0.166 HD
ENDROOT
BRANCH   7   9
ATOM      9  C   UNL     1       2.786  -0.264  -0.117  1.00  0.00    -0.015 A 
ATOM     10  C   UNL     1       3.780  -0.655   0.789  1.00  0.00    +0.009 A 
ATOM     11  C   UNL     1       3.036  -0.335  -1.492  1.00  0.00    +0.029 A 
ATOM     12  C   UNL     1       5.017  -1.108   0.326  1.00  0.00    +0.002 A 
ATOM     13  C   UNL     1       4.273  -0.788  -1.947  1.00  0.00    +0.041 A 
ATOM     14  C   UNL     1       5.264  -1.174  -1.045  1.00  0.00    +0.020 A 
ATOM     15 Cl   UNL     1       4.581  -0.871  -3.638  1.00  0.00    -0.084 Cl
ENDBRANCH   7   9
BRANCH   4  16
ATOM     16  C   UNL     1      -2.118   0.437   0.959  1.00  0.00    +0.053 C 
ATOM     17  C   UNL     1      -2.974   0.436  -0.085  1.00  0.00    +0.054 C 
BRANCH  17  18
ATOM     18  N   UNL     1      -2.605   0.461  -1.420  1.00  0.00    -0.398 N 
ATOM     19  H   UNL     1      -1.607   0.654  -1.538  1.00  0.00    +0.156 HD
ATOM     20  H   UNL     1      -3.151   1.102  -1.992  1.00  0.00    +0.156 HD
ENDBRANCH  17  18
BRANCH  17  21
ATOM     21  C   UNL     1      -4.415   0.370   0.183  1.00  0.00    +0.103 C 
ATOM     22  C   UNL     1      -5.006   1.552   0.733  1.00  0.00    +0.103 C 
ATOM     23  C   UNL     1      -5.152  -0.736  -0.063  1.00  0.00    +0.149 C 
ATOM     24  N   UNL     1      -5.472   2.512   1.186  1.00  0.00    -0.192 NA
ATOM     25  C   UNL     1      -4.563  -1.927  -0.580  1.00  0.00    +0.112 C 
ATOM     26  C   UNL     1      -6.551  -0.770   0.200  1.00  0.00    +0.112 C 
ATOM     27  N   UNL     1      -4.108  -2.916  -0.982  1.00  0.00    -0.192 NA
ATOM     28  N   UNL     1      -7.690  -0.787   0.418  1.00  0.00    -0.192 NA
ENDBRANCH  17  21
ENDBRANCH   4  16
TORSDOF 4
