MODEL 1
REMARK VINA RESULT:    -7.271      0.000      0.000
REMARK INTER + INTRA:         -10.233
REMARK INTER:                  -8.971
REMARK INTRA:                  -1.262
REMARK UNBOUND:                -1.262
REMARK SMILES Cc1cc(C)c(N(C(=O)c2ccccn2)c2cccc(Br)c2)[nH]1
REMARK SMILES IDX 7 1 6 2 2 3 3 4 23 5 4 6 1 7 5 9 8 10 9 11 10 12 11 13 15 14
REMARK SMILES IDX 12 15 14 16 13 17 16 18 17 19 22 20 18 21 20 22 19 23 21 24
REMARK H PARENT 23 8
ROOT
ATOM      1  N   UNL     1      24.056   3.223  51.197  1.00  0.00    -0.261 N 
ENDROOT
BRANCH   1   2
ATOM      2  C   UNL     1      24.572   4.437  50.689  1.00  0.00    +0.120 A 
ATOM      3  C   UNL     1      24.573   6.695  50.409  1.00  0.00    +0.014 A 
ATOM      4  C   UNL     1      25.690   6.198  49.782  1.00  0.00    +0.028 A 
ATOM      5  N   UNL     1      23.894   5.622  50.915  1.00  0.00    -0.345 N 
ATOM      6  C   UNL     1      25.686   4.774  49.918  1.00  0.00    -0.008 A 
ATOM      7  C   UNL     1      24.066   8.079  50.556  1.00  0.00    +0.064 C 
ATOM      8  H   UNL     1      22.997   5.661  51.389  1.00  0.00    +0.168 HD
ATOM      9  C   UNL     1      26.709   3.902  49.276  1.00  0.00    +0.048 C 
ENDBRANCH   1   2
BRANCH   1  10
ATOM     10  C   UNL     1      24.464   2.780  52.480  1.00  0.00    +0.282 C 
ATOM     11  O   UNL     1      24.350   3.447  53.517  1.00  0.00    -0.266 OA
BRANCH  10  12
ATOM     12  C   UNL     1      25.118   1.440  52.626  1.00  0.00    +0.129 A 
ATOM     13  C   UNL     1      26.230   1.148  51.840  1.00  0.00    +0.034 A 
ATOM     14  N   UNL     1      24.551   0.545  53.476  1.00  0.00    -0.251 NA
ATOM     15  C   UNL     1      26.811  -0.112  51.958  1.00  0.00    +0.004 A 
ATOM     16  C   UNL     1      25.140  -0.666  53.568  1.00  0.00    +0.112 A 
ATOM     17  C   UNL     1      26.260  -1.036  52.840  1.00  0.00    +0.020 A 
ENDBRANCH  10  12
ENDBRANCH   1  10
BRANCH   1  18
ATOM     18  C   UNL     1      23.074   2.544  50.427  1.00  0.00    +0.052 A 
ATOM     19  C   UNL     1      23.159   2.526  49.026  1.00  0.00    +0.027 A 
ATOM     20  C   UNL     1      21.985   1.928  51.056  1.00  0.00    +0.042 A 
ATOM     21  C   UNL     1      22.178   1.887  48.266  1.00  0.00    +0.003 A 
ATOM     22  C   UNL     1      21.007   1.295  50.290  1.00  0.00    +0.020 A 
ATOM     23  C   UNL     1      21.100   1.268  48.900  1.00  0.00    +0.016 A 
ATOM     24 Br   UNL     1      19.541   0.463  51.146  1.00  0.00    -0.051 Br
ENDBRANCH   1  18
TORSDOF 4
ENDMDL
MODEL 2
REMARK VINA RESULT:    -7.232      3.040      6.598
REMARK INTER + INTRA:         -10.185
REMARK INTER:                  -9.246
REMARK INTRA:                  -0.939
REMARK UNBOUND:                -1.262
REMARK SMILES Cc1cc(C)c(N(C(=O)c2ccccn2)c2cccc(Br)c2)[nH]1
REMARK SMILES IDX 7 1 6 2 2 3 3 4 23 5 4 6 1 7 5 9 8 10 9 11 10 12 11 13 15 14
REMARK SMILES IDX 12 15 14 16 13 17 16 18 17 19 22 20 18 21 20 22 19 23 21 24
REMARK H PARENT 23 8
ROOT
ATOM      1  N   UNL     1      24.055   0.727  52.970  1.00  0.00    -0.261 N 
ENDROOT
BRANCH   1   2
ATOM      2  C   UNL     1      23.011  -0.010  53.573  1.00  0.00    +0.120 A 
ATOM      3  C   UNL     1      20.862  -0.736  53.746  1.00  0.00    +0.014 A 
ATOM      4  C   UNL     1      21.590  -1.354  54.733  1.00  0.00    +0.028 A 
ATOM      5  N   UNL     1      21.721   0.095  53.082  1.00  0.00    -0.345 N 
ATOM      6  C   UNL     1      22.938  -0.880  54.662  1.00  0.00    -0.008 A 
ATOM      7  C   UNL     1      19.429  -0.830  53.379  1.00  0.00    +0.064 C 
ATOM      8  H   UNL     1      21.469   0.729  52.332  1.00  0.00    +0.168 HD
ATOM      9  C   UNL     1      23.982  -1.276  55.648  1.00  0.00    +0.048 C 
ENDBRANCH   1   2
BRANCH   1  10
ATOM     10  C   UNL     1      23.788   2.025  52.468  1.00  0.00    +0.282 C 
ATOM     11  O   UNL     1      23.770   3.051  53.162  1.00  0.00    -0.266 OA
BRANCH  10  12
ATOM     12  C   UNL     1      23.458   2.204  51.017  1.00  0.00    +0.129 A 
ATOM     13  C   UNL     1      24.200   3.115  50.269  1.00  0.00    +0.034 A 
ATOM     14  N   UNL     1      22.403   1.512  50.515  1.00  0.00    -0.251 NA
ATOM     15  C   UNL     1      23.865   3.300  48.930  1.00  0.00    +0.004 A 
ATOM     16  C   UNL     1      22.106   1.713  49.214  1.00  0.00    +0.112 A 
ATOM     17  C   UNL     1      22.802   2.585  48.389  1.00  0.00    +0.020 A 
ENDBRANCH  10  12
ENDBRANCH   1  10
BRANCH   1  18
ATOM     18  C   UNL     1      25.359   0.161  52.977  1.00  0.00    +0.052 A 
ATOM     19  C   UNL     1      25.567  -1.144  52.505  1.00  0.00    +0.027 A 
ATOM     20  C   UNL     1      26.439   0.883  53.500  1.00  0.00    +0.042 A 
ATOM     21  C   UNL     1      26.841  -1.714  52.541  1.00  0.00    +0.003 A 
ATOM     22  C   UNL     1      27.708   0.306  53.535  1.00  0.00    +0.020 A 
ATOM     23  C   UNL     1      27.915  -0.987  53.056  1.00  0.00    +0.016 A 
ATOM     24 Br   UNL     1      29.163   1.286  54.239  1.00  0.00    -0.051 Br
ENDBRANCH   1  18
TORSDOF 4
ENDMDL
MODEL 3
REMARK VINA RESULT:    -7.129      2.553      3.873
REMARK INTER + INTRA:         -10.059
REMARK INTER:                  -9.333
REMARK INTRA:                  -0.726
REMARK UNBOUND:                -1.262
REMARK SMILES Cc1cc(C)c(N(C(=O)c2ccccn2)c2cccc(Br)c2)[nH]1
REMARK SMILES IDX 7 1 6 2 2 3 3 4 23 5 4 6 1 7 5 9 8 10 9 11 10 12 11 13 15 14
REMARK SMILES IDX 12 15 14 16 13 17 16 18 17 19 22 20 18 21 20 22 19 23 21 24
REMARK H PARENT 23 8
ROOT
ATOM      1  N   UNL     1      23.241   1.677  52.591  1.00  0.00    -0.261 N 
ENDROOT
BRANCH   1   2
ATOM      2  C   UNL     1      22.761   2.315  51.426  1.00  0.00    +0.120 A 
ATOM      3  C   UNL     1      22.387   2.462  49.186  1.00  0.00    +0.014 A 
ATOM      4  C   UNL     1      21.825   3.569  49.774  1.00  0.00    +0.028 A 
ATOM      5  N   UNL     1      22.977   1.740  50.186  1.00  0.00    -0.345 N 
ATOM      6  C   UNL     1      22.082   3.511  51.180  1.00  0.00    -0.008 A 
ATOM      7  C   UNL     1      22.448   2.028  47.770  1.00  0.00    +0.064 C 
ATOM      8  H   UNL     1      23.522   0.894  50.060  1.00  0.00    +0.168 HD
ATOM      9  C   UNL     1      21.691   4.603  52.115  1.00  0.00    +0.048 C 
ENDBRANCH   1   2
BRANCH   1  10
ATOM     10  C   UNL     1      24.445   2.130  53.184  1.00  0.00    +0.282 C 
ATOM     11  O   UNL     1      24.611   3.267  53.646  1.00  0.00    -0.266 OA
BRANCH  10  12
ATOM     12  C   UNL     1      25.633   1.218  53.236  1.00  0.00    +0.129 A 
ATOM     13  C   UNL     1      25.898   0.399  52.142  1.00  0.00    +0.034 A 
ATOM     14  N   UNL     1      26.361   1.187  54.383  1.00  0.00    -0.251 NA
ATOM     15  C   UNL     1      26.984  -0.469  52.212  1.00  0.00    +0.004 A 
ATOM     16  C   UNL     1      27.407   0.335  54.418  1.00  0.00    +0.112 A 
ATOM     17  C   UNL     1      27.756  -0.501  53.369  1.00  0.00    +0.020 A 
ENDBRANCH  10  12
ENDBRANCH   1  10
BRANCH   1  18
ATOM     18  C   UNL     1      22.436   0.659  53.171  1.00  0.00    +0.052 A 
ATOM     19  C   UNL     1      22.980  -0.221  54.119  1.00  0.00    +0.027 A 
ATOM     20  C   UNL     1      21.106   0.493  52.763  1.00  0.00    +0.042 A 
ATOM     21  C   UNL     1      22.200  -1.242  54.666  1.00  0.00    +0.003 A 
ATOM     22  C   UNL     1      20.335  -0.531  53.312  1.00  0.00    +0.020 A 
ATOM     23  C   UNL     1      20.873  -1.397  54.262  1.00  0.00    +0.016 A 
ATOM     24 Br   UNL     1      18.539  -0.748  52.760  1.00  0.00    -0.051 Br
ENDBRANCH   1  18
TORSDOF 4
ENDMDL
MODEL 4
REMARK VINA RESULT:    -7.024      1.860      2.365
REMARK INTER + INTRA:          -9.929
REMARK INTER:                  -9.079
REMARK INTRA:                  -0.851
REMARK UNBOUND:                -1.262
REMARK SMILES Cc1cc(C)c(N(C(=O)c2ccccn2)c2cccc(Br)c2)[nH]1
REMARK SMILES IDX 7 1 6 2 2 3 3 4 23 5 4 6 1 7 5 9 8 10 9 11 10 12 11 13 15 14
REMARK SMILES IDX 12 15 14 16 13 17 16 18 17 19 22 20 18 21 20 22 19 23 21 24
REMARK H PARENT 23 8
ROOT
ATOM      1  N   UNL     1      24.768   3.006  50.996  1.00  0.00    -0.261 N 
ENDROOT
BRANCH   1   2
ATOM      2  C   UNL     1      24.521   4.396  51.052  1.00  0.00    +0.120 A 
ATOM      3  C   UNL     1      25.011   6.575  50.617  1.00  0.00    +0.014 A 
ATOM      4  C   UNL     1      23.796   6.543  51.257  1.00  0.00    +0.028 A 
ATOM      5  N   UNL     1      25.449   5.283  50.535  1.00  0.00    -0.345 N 
ATOM      6  C   UNL     1      23.488   5.181  51.571  1.00  0.00    -0.008 A 
ATOM      7  C   UNL     1      25.815   7.706  50.097  1.00  0.00    +0.064 C 
ATOM      8  H   UNL     1      26.344   4.986  50.161  1.00  0.00    +0.168 HD
ATOM      9  C   UNL     1      22.282   4.788  52.350  1.00  0.00    +0.048 C 
ENDBRANCH   1   2
BRANCH   1  10
ATOM     10  C   UNL     1      26.106   2.540  51.002  1.00  0.00    +0.282 C 
ATOM     11  O   UNL     1      26.960   2.861  50.164  1.00  0.00    -0.266 OA
BRANCH  10  12
ATOM     12  C   UNL     1      26.544   1.561  52.048  1.00  0.00    +0.129 A 
ATOM     13  C   UNL     1      26.692   0.222  51.693  1.00  0.00    +0.034 A 
ATOM     14  N   UNL     1      26.714   2.018  53.315  1.00  0.00    -0.251 NA
ATOM     15  C   UNL     1      27.067  -0.686  52.679  1.00  0.00    +0.004 A 
ATOM     16  C   UNL     1      27.079   1.112  54.247  1.00  0.00    +0.112 A 
ATOM     17  C   UNL     1      27.268  -0.235  53.979  1.00  0.00    +0.020 A 
ENDBRANCH  10  12
ENDBRANCH   1  10
BRANCH   1  18
ATOM     18  C   UNL     1      23.650   2.130  51.030  1.00  0.00    +0.052 A 
ATOM     19  C   UNL     1      22.832   1.981  49.899  1.00  0.00    +0.027 A 
ATOM     20  C   UNL     1      23.326   1.444  52.207  1.00  0.00    +0.042 A 
ATOM     21  C   UNL     1      21.715   1.145  49.940  1.00  0.00    +0.003 A 
ATOM     22  C   UNL     1      22.206   0.614  52.241  1.00  0.00    +0.020 A 
ATOM     23  C   UNL     1      21.401   0.459  51.114  1.00  0.00    +0.016 A 
ATOM     24 Br   UNL     1      21.775  -0.311  53.833  1.00  0.00    -0.051 Br
ENDBRANCH   1  18
TORSDOF 4
ENDMDL
MODEL 5
REMARK VINA RESULT:    -6.970      1.137      2.011
REMARK INTER + INTRA:          -9.863
REMARK INTER:                  -8.570
REMARK INTRA:                  -1.293
REMARK UNBOUND:                -1.262
REMARK SMILES Cc1cc(C)c(N(C(=O)c2ccccn2)c2cccc(Br)c2)[nH]1
REMARK SMILES IDX 7 1 6 2 2 3 3 4 23 5 4 6 1 7 5 9 8 10 9 11 10 12 11 13 15 14
REMARK SMILES IDX 12 15 14 16 13 17 16 18 17 19 22 20 18 21 20 22 19 23 21 24
REMARK H PARENT 23 8
ROOT
ATOM      1  N   UNL     1      24.040   2.778  51.204  1.00  0.00    -0.261 N 
ENDROOT
BRANCH   1   2
ATOM      2  C   UNL     1      24.669   3.844  50.522  1.00  0.00    +0.120 A 
ATOM      3  C   UNL     1      26.350   4.781  49.307  1.00  0.00    +0.014 A 
ATOM      4  C   UNL     1      25.368   5.730  49.458  1.00  0.00    +0.028 A 
ATOM      5  N   UNL     1      25.931   3.668  49.982  1.00  0.00    -0.345 N 
ATOM      6  C   UNL     1      24.318   5.169  50.252  1.00  0.00    -0.008 A 
ATOM      7  C   UNL     1      27.657   4.824  48.610  1.00  0.00    +0.064 C 
ATOM      8  H   UNL     1      26.465   2.814  50.101  1.00  0.00    +0.168 HD
ATOM      9  C   UNL     1      23.132   5.957  50.688  1.00  0.00    +0.048 C 
ENDBRANCH   1   2
BRANCH   1  10
ATOM     10  C   UNL     1      24.500   2.413  52.494  1.00  0.00    +0.282 C 
ATOM     11  O   UNL     1      24.370   3.116  53.505  1.00  0.00    -0.266 OA
BRANCH  10  12
ATOM     12  C   UNL     1      25.234   1.120  52.679  1.00  0.00    +0.129 A 
ATOM     13  C   UNL     1      24.871   0.289  53.736  1.00  0.00    +0.034 A 
ATOM     14  N   UNL     1      26.268   0.850  51.841  1.00  0.00    -0.251 NA
ATOM     15  C   UNL     1      25.580  -0.894  53.921  1.00  0.00    +0.004 A 
ATOM     16  C   UNL     1      26.933  -0.306  52.046  1.00  0.00    +0.112 A 
ATOM     17  C   UNL     1      26.628  -1.202  53.060  1.00  0.00    +0.020 A 
ENDBRANCH  10  12
ENDBRANCH   1  10
BRANCH   1  18
ATOM     18  C   UNL     1      22.906   2.176  50.595  1.00  0.00    +0.052 A 
ATOM     19  C   UNL     1      22.767   2.179  49.198  1.00  0.00    +0.027 A 
ATOM     20  C   UNL     1      21.894   1.619  51.385  1.00  0.00    +0.042 A 
ATOM     21  C   UNL     1      21.638   1.616  48.600  1.00  0.00    +0.003 A 
ATOM     22  C   UNL     1      20.767   1.062  50.780  1.00  0.00    +0.020 A 
ATOM     23  C   UNL     1      20.636   1.055  49.392  1.00  0.00    +0.016 A 
ATOM     24 Br   UNL     1      19.405   0.308  51.852  1.00  0.00    -0.051 Br
ENDBRANCH   1  18
TORSDOF 4
ENDMDL
MODEL 6
REMARK VINA RESULT:    -6.882      1.860      4.940
REMARK INTER + INTRA:          -9.753
REMARK INTER:                  -8.588
REMARK INTRA:                  -1.166
REMARK UNBOUND:                -1.262
REMARK SMILES Cc1cc(C)c(N(C(=O)c2ccccn2)c2cccc(Br)c2)[nH]1
REMARK SMILES IDX 7 1 6 2 2 3 3 4 23 5 4 6 1 7 5 9 8 10 9 11 10 12 11 13 15 14
REMARK SMILES IDX 12 15 14 16 13 17 16 18 17 19 22 20 18 21 20 22 19 23 21 24
REMARK H PARENT 23 8
ROOT
ATOM      1  N   UNL     1      23.061   2.412  51.784  1.00  0.00    -0.261 N 
ENDROOT
BRANCH   1   2
ATOM      2  C   UNL     1      23.218   1.241  52.559  1.00  0.00    +0.120 A 
ATOM      3  C   UNL     1      22.468  -0.423  53.918  1.00  0.00    +0.014 A 
ATOM      4  C   UNL     1      23.793  -0.670  53.652  1.00  0.00    +0.028 A 
ATOM      5  N   UNL     1      22.149   0.746  53.285  1.00  0.00    -0.345 N 
ATOM      6  C   UNL     1      24.291   0.388  52.827  1.00  0.00    -0.008 A 
ATOM      7  C   UNL     1      21.476  -1.165  54.731  1.00  0.00    +0.064 C 
ATOM      8  H   UNL     1      21.254   1.220  53.337  1.00  0.00    +0.168 HD
ATOM      9  C   UNL     1      25.721   0.486  52.422  1.00  0.00    +0.048 C 
ENDBRANCH   1   2
BRANCH   1  10
ATOM     10  C   UNL     1      23.891   3.531  52.043  1.00  0.00    +0.282 C 
ATOM     11  O   UNL     1      23.916   4.147  53.118  1.00  0.00    -0.266 OA
BRANCH  10  12
ATOM     12  C   UNL     1      24.779   4.060  50.959  1.00  0.00    +0.129 A 
ATOM     13  C   UNL     1      25.750   3.221  50.418  1.00  0.00    +0.034 A 
ATOM     14  N   UNL     1      24.638   5.363  50.600  1.00  0.00    -0.251 NA
ATOM     15  C   UNL     1      26.593   3.731  49.435  1.00  0.00    +0.004 A 
ATOM     16  C   UNL     1      25.470   5.825  49.644  1.00  0.00    +0.112 A 
ATOM     17  C   UNL     1      26.450   5.056  49.036  1.00  0.00    +0.020 A 
ENDBRANCH  10  12
ENDBRANCH   1  10
BRANCH   1  18
ATOM     18  C   UNL     1      22.131   2.379  50.711  1.00  0.00    +0.052 A 
ATOM     19  C   UNL     1      22.222   1.386  49.724  1.00  0.00    +0.027 A 
ATOM     20  C   UNL     1      21.143   3.367  50.602  1.00  0.00    +0.042 A 
ATOM     21  C   UNL     1      21.328   1.371  48.651  1.00  0.00    +0.003 A 
ATOM     22  C   UNL     1      20.256   3.346  49.526  1.00  0.00    +0.020 A 
ATOM     23  C   UNL     1      20.342   2.353  48.553  1.00  0.00    +0.016 A 
ATOM     24 Br   UNL     1      18.924   4.681  49.387  1.00  0.00    -0.051 Br
ENDBRANCH   1  18
TORSDOF 4
ENDMDL
MODEL 7
REMARK VINA RESULT:    -6.807      2.279      5.853
REMARK INTER + INTRA:          -9.661
REMARK INTER:                  -8.710
REMARK INTRA:                  -0.951
REMARK UNBOUND:                -1.262
REMARK SMILES Cc1cc(C)c(N(C(=O)c2ccccn2)c2cccc(Br)c2)[nH]1
REMARK SMILES IDX 7 1 6 2 2 3 3 4 23 5 4 6 1 7 5 9 8 10 9 11 10 12 11 13 15 14
REMARK SMILES IDX 12 15 14 16 13 17 16 18 17 19 22 20 18 21 20 22 19 23 21 24
REMARK H PARENT 23 8
ROOT
ATOM      1  N   UNL     1      24.057   2.218  52.304  1.00  0.00    -0.261 N 
ENDROOT
BRANCH   1   2
ATOM      2  C   UNL     1      22.870   1.518  51.994  1.00  0.00    +0.120 A 
ATOM      3  C   UNL     1      21.053   0.250  52.514  1.00  0.00    +0.014 A 
ATOM      4  C   UNL     1      20.979   0.553  51.176  1.00  0.00    +0.028 A 
ATOM      5  N   UNL     1      22.212   0.806  52.981  1.00  0.00    -0.345 N 
ATOM      6  C   UNL     1      22.134   1.320  50.823  1.00  0.00    -0.008 A 
ATOM      7  C   UNL     1      20.154  -0.532  53.394  1.00  0.00    +0.064 C 
ATOM      8  H   UNL     1      22.574   0.710  53.924  1.00  0.00    +0.168 HD
ATOM      9  C   UNL     1      22.423   1.742  49.425  1.00  0.00    +0.048 C 
ENDBRANCH   1   2
BRANCH   1  10
ATOM     10  C   UNL     1      24.107   3.620  52.106  1.00  0.00    +0.282 C 
ATOM     11  O   UNL     1      23.494   4.445  52.798  1.00  0.00    -0.266 OA
BRANCH  10  12
ATOM     12  C   UNL     1      24.908   4.179  50.970  1.00  0.00    +0.129 A 
ATOM     13  C   UNL     1      25.926   3.402  50.421  1.00  0.00    +0.034 A 
ATOM     14  N   UNL     1      24.645   5.450  50.570  1.00  0.00    -0.251 NA
ATOM     15  C   UNL     1      26.687   3.942  49.389  1.00  0.00    +0.004 A 
ATOM     16  C   UNL     1      25.401   5.942  49.566  1.00  0.00    +0.112 A 
ATOM     17  C   UNL     1      26.420   5.234  48.949  1.00  0.00    +0.020 A 
ENDBRANCH  10  12
ENDBRANCH   1  10
BRANCH   1  18
ATOM     18  C   UNL     1      25.126   1.488  52.891  1.00  0.00    +0.052 A 
ATOM     19  C   UNL     1      25.899   2.061  53.912  1.00  0.00    +0.027 A 
ATOM     20  C   UNL     1      25.447   0.208  52.422  1.00  0.00    +0.042 A 
ATOM     21  C   UNL     1      26.969   1.356  54.468  1.00  0.00    +0.003 A 
ATOM     22  C   UNL     1      26.520  -0.487  52.980  1.00  0.00    +0.020 A 
ATOM     23  C   UNL     1      27.280   0.079  54.001  1.00  0.00    +0.016 A 
ATOM     24 Br   UNL     1      26.947  -2.216  52.344  1.00  0.00    -0.051 Br
ENDBRANCH   1  18
TORSDOF 4
ENDMDL
MODEL 8
REMARK VINA RESULT:    -6.590      2.422      4.928
REMARK INTER + INTRA:          -9.394
REMARK INTER:                  -8.206
REMARK INTRA:                  -1.188
REMARK UNBOUND:                -1.262
REMARK SMILES Cc1cc(C)c(N(C(=O)c2ccccn2)c2cccc(Br)c2)[nH]1
REMARK SMILES IDX 7 1 6 2 2 3 3 4 23 5 4 6 1 7 5 9 8 10 9 11 10 12 11 13 15 14
REMARK SMILES IDX 12 15 14 16 13 17 16 18 17 19 22 20 18 21 20 22 19 23 21 24
REMARK H PARENT 23 8
ROOT
ATOM      1  N   UNL     1      22.657   2.939  51.695  1.00  0.00    -0.261 N 
ENDROOT
BRANCH   1   2
ATOM      2  C   UNL     1      21.580   3.076  50.790  1.00  0.00    +0.120 A 
ATOM      3  C   UNL     1      19.613   3.972  50.080  1.00  0.00    +0.014 A 
ATOM      4  C   UNL     1      20.046   3.100  49.111  1.00  0.00    +0.028 A 
ATOM      5  N   UNL     1      20.525   3.918  51.096  1.00  0.00    -0.345 N 
ATOM      6  C   UNL     1      21.264   2.499  49.558  1.00  0.00    -0.008 A 
ATOM      7  C   UNL     1      18.410   4.835  50.157  1.00  0.00    +0.064 C 
ATOM      8  H   UNL     1      20.454   4.411  51.980  1.00  0.00    +0.168 HD
ATOM      9  C   UNL     1      21.964   1.432  48.789  1.00  0.00    +0.048 C 
ENDBRANCH   1   2
BRANCH   1  10
ATOM     10  C   UNL     1      23.522   4.040  51.913  1.00  0.00    +0.282 C 
ATOM     11  O   UNL     1      23.479   4.773  52.910  1.00  0.00    -0.266 OA
BRANCH  10  12
ATOM     12  C   UNL     1      24.541   4.398  50.875  1.00  0.00    +0.129 A 
ATOM     13  C   UNL     1      25.356   3.393  50.362  1.00  0.00    +0.034 A 
ATOM     14  N   UNL     1      24.665   5.706  50.530  1.00  0.00    -0.251 NA
ATOM     15  C   UNL     1      26.323   3.740  49.422  1.00  0.00    +0.004 A 
ATOM     16  C   UNL     1      25.611   6.008  49.616  1.00  0.00    +0.112 A 
ATOM     17  C   UNL     1      26.452   5.071  49.038  1.00  0.00    +0.020 A 
ENDBRANCH  10  12
ENDBRANCH   1  10
BRANCH   1  18
ATOM     18  C   UNL     1      22.768   1.720  52.416  1.00  0.00    +0.052 A 
ATOM     19  C   UNL     1      21.633   1.134  52.996  1.00  0.00    +0.027 A 
ATOM     20  C   UNL     1      24.021   1.119  52.597  1.00  0.00    +0.042 A 
ATOM     21  C   UNL     1      21.746  -0.048  53.733  1.00  0.00    +0.003 A 
ATOM     22  C   UNL     1      24.125  -0.058  53.337  1.00  0.00    +0.020 A 
ATOM     23  C   UNL     1      22.995  -0.646  53.903  1.00  0.00    +0.016 A 
ATOM     24 Br   UNL     1      25.818  -0.867  53.575  1.00  0.00    -0.051 Br
ENDBRANCH   1  18
TORSDOF 4
ENDMDL
MODEL 9
REMARK VINA RESULT:    -6.428      2.691      5.634
REMARK INTER + INTRA:          -9.194
REMARK INTER:                  -8.054
REMARK INTRA:                  -1.140
REMARK UNBOUND:                -1.262
REMARK SMILES Cc1cc(C)c(N(C(=O)c2ccccn2)c2cccc(Br)c2)[nH]1
REMARK SMILES IDX 7 1 6 2 2 3 3 4 23 5 4 6 1 7 5 9 8 10 9 11 10 12 11 13 15 14
REMARK SMILES IDX 12 15 14 16 13 17 16 18 17 19 22 20 18 21 20 22 19 23 21 24
REMARK H PARENT 23 8
ROOT
ATOM      1  N   UNL     1      24.298   3.008  50.128  1.00  0.00    -0.261 N 
ENDROOT
BRANCH   1   2
ATOM      2  C   UNL     1      24.620   2.514  51.412  1.00  0.00    +0.120 A 
ATOM      3  C   UNL     1      25.481   0.975  52.851  1.00  0.00    +0.014 A 
ATOM      4  C   UNL     1      25.058   2.049  53.596  1.00  0.00    +0.028 A 
ATOM      5  N   UNL     1      25.177   1.255  51.547  1.00  0.00    -0.345 N 
ATOM      6  C   UNL     1      24.480   3.012  52.710  1.00  0.00    -0.008 A 
ATOM      7  C   UNL     1      26.121  -0.301  53.246  1.00  0.00    +0.064 C 
ATOM      8  H   UNL     1      25.319   0.630  50.761  1.00  0.00    +0.168 HD
ATOM      9  C   UNL     1      23.835   4.265  53.194  1.00  0.00    +0.048 C 
ENDBRANCH   1   2
BRANCH   1  10
ATOM     10  C   UNL     1      23.100   2.582  49.502  1.00  0.00    +0.282 C 
ATOM     11  O   UNL     1      22.948   2.491  48.277  1.00  0.00    -0.266 OA
BRANCH  10  12
ATOM     12  C   UNL     1      21.904   2.251  50.342  1.00  0.00    +0.129 A 
ATOM     13  C   UNL     1      21.518   0.919  50.463  1.00  0.00    +0.034 A 
ATOM     14  N   UNL     1      21.211   3.281  50.894  1.00  0.00    -0.251 NA
ATOM     15  C   UNL     1      20.385   0.624  51.218  1.00  0.00    +0.004 A 
ATOM     16  C   UNL     1      20.119   2.960  51.621  1.00  0.00    +0.112 A 
ATOM     17  C   UNL     1      19.674   1.661  51.811  1.00  0.00    +0.020 A 
ENDBRANCH  10  12
ENDBRANCH   1  10
BRANCH   1  18
ATOM     18  C   UNL     1      25.155   3.987  49.558  1.00  0.00    +0.052 A 
ATOM     19  C   UNL     1      26.520   3.717  49.379  1.00  0.00    +0.027 A 
ATOM     20  C   UNL     1      24.654   5.249  49.215  1.00  0.00    +0.042 A 
ATOM     21  C   UNL     1      27.370   4.690  48.849  1.00  0.00    +0.003 A 
ATOM     22  C   UNL     1      25.510   6.217  48.688  1.00  0.00    +0.020 A 
ATOM     23  C   UNL     1      26.863   5.942  48.501  1.00  0.00    +0.016 A 
ATOM     24 Br   UNL     1      24.827   7.917  48.224  1.00  0.00    -0.051 Br
ENDBRANCH   1  18
TORSDOF 4
ENDMDL
