MODEL 1
REMARK VINA RESULT:    -6.229      0.000      0.000
REMARK INTER + INTRA:          -8.936
REMARK INTER:                  -8.231
REMARK INTRA:                  -0.704
REMARK UNBOUND:                -0.704
REMARK SMILES C[N+](C)(C)C[C@H](O)COc1ccnc2ccccc12
REMARK SMILES IDX 6 1 5 2 2 3 1 4 3 5 4 6 7 7 8 9 9 10 10 11 11 12 19 13 12 14
REMARK SMILES IDX 18 15 14 16 13 17 17 18 15 19 16 20
REMARK H PARENT 7 8
ROOT
ATOM      1  C   UNL     1      26.518   2.054  52.061  1.00  0.00    +0.206 C 
ENDROOT
BRANCH   1   2
ATOM      2  C   UNL     1      26.512   1.809  53.584  1.00  0.00    +0.299 C 
BRANCH   2   3
ATOM      3  N   UNL     1      27.235   0.512  54.047  1.00  0.00    -0.329 N 
ATOM      4  C   UNL     1      26.576   0.050  55.347  1.00  0.00    +0.334 C 
ATOM      5  C   UNL     1      27.107  -0.599  53.015  1.00  0.00    +0.334 C 
ATOM      6  C   UNL     1      28.715   0.768  54.332  1.00  0.00    +0.334 C 
ENDBRANCH   2   3
ENDBRANCH   1   2
BRANCH   1   7
ATOM      7  O   UNL     1      27.602   2.923  51.708  1.00  0.00    -0.384 OA
ATOM      8  H   UNL     1      27.643   2.936  50.729  1.00  0.00    +0.211 HD
ENDBRANCH   1   7
BRANCH   1   9
ATOM      9  C   UNL     1      25.200   2.712  51.620  1.00  0.00    +0.267 C 
BRANCH   9  10
ATOM     10  O   UNL     1      24.273   1.648  51.383  1.00  0.00    -0.490 OA
BRANCH  10  11
ATOM     11  C   UNL     1      22.981   1.816  51.822  1.00  0.00    +0.130 A 
ATOM     12  C   UNL     1      22.108   2.782  51.331  1.00  0.00    +0.067 A 
ATOM     13  C   UNL     1      22.543   0.921  52.828  1.00  0.00    +0.042 A 
ATOM     14  C   UNL     1      20.833   2.834  51.863  1.00  0.00    +0.115 A 
ATOM     15  C   UNL     1      23.358  -0.096  53.379  1.00  0.00    +0.014 A 
ATOM     16  C   UNL     1      21.220   1.067  53.297  1.00  0.00    +0.074 A 
ATOM     17  N   UNL     1      20.386   2.006  52.825  1.00  0.00    -0.256 NA
ATOM     18  C   UNL     1      22.874  -0.947  54.371  1.00  0.00    +0.001 A 
ATOM     19  C   UNL     1      20.762   0.205  54.286  1.00  0.00    +0.029 A 
ATOM     20  C   UNL     1      21.571  -0.796  54.825  1.00  0.00    +0.002 A 
ENDBRANCH  10  11
ENDBRANCH   9  10
ENDBRANCH   1   9
TORSDOF 6
ENDMDL
MODEL 2
REMARK VINA RESULT:    -6.040      1.558      2.798
REMARK INTER + INTRA:          -8.687
REMARK INTER:                  -8.153
REMARK INTRA:                  -0.534
REMARK UNBOUND:                -0.704
REMARK SMILES C[N+](C)(C)C[C@H](O)COc1ccnc2ccccc12
REMARK SMILES IDX 6 1 5 2 2 3 1 4 3 5 4 6 7 7 8 9 9 10 10 11 11 12 19 13 12 14
REMARK SMILES IDX 18 15 14 16 13 17 17 18 15 19 16 20
REMARK H PARENT 7 8
ROOT
ATOM      1  C   UNL     1      26.063   1.924  52.328  1.00  0.00    +0.206 C 
ENDROOT
BRANCH   1   2
ATOM      2  C   UNL     1      27.048   1.979  53.514  1.00  0.00    +0.299 C 
BRANCH   2   3
ATOM      3  N   UNL     1      27.688   0.616  53.904  1.00  0.00    -0.329 N 
ATOM      4  C   UNL     1      27.356  -0.388  52.800  1.00  0.00    +0.334 C 
ATOM      5  C   UNL     1      29.200   0.723  54.025  1.00  0.00    +0.334 C 
ATOM      6  C   UNL     1      27.112   0.084  55.217  1.00  0.00    +0.334 C 
ENDBRANCH   2   3
ENDBRANCH   1   2
BRANCH   1   7
ATOM      7  O   UNL     1      26.271   3.051  51.465  1.00  0.00    -0.384 OA
ATOM      8  H   UNL     1      25.980   2.775  50.571  1.00  0.00    +0.211 HD
ENDBRANCH   1   7
BRANCH   1   9
ATOM      9  C   UNL     1      24.612   1.958  52.836  1.00  0.00    +0.267 C 
BRANCH   9  10
ATOM     10  O   UNL     1      23.975   0.783  52.326  1.00  0.00    -0.490 OA
BRANCH  10  11
ATOM     11  C   UNL     1      23.194   0.052  53.190  1.00  0.00    +0.130 A 
ATOM     12  C   UNL     1      23.677  -0.597  54.322  1.00  0.00    +0.067 A 
ATOM     13  C   UNL     1      21.813  -0.009  52.882  1.00  0.00    +0.042 A 
ATOM     14  C   UNL     1      22.775  -1.292  55.105  1.00  0.00    +0.115 A 
ATOM     15  C   UNL     1      21.233   0.626  51.758  1.00  0.00    +0.014 A 
ATOM     16  C   UNL     1      20.985  -0.749  53.752  1.00  0.00    +0.074 A 
ATOM     17  N   UNL     1      21.459  -1.379  54.838  1.00  0.00    -0.256 NA
ATOM     18  C   UNL     1      19.867   0.529  51.503  1.00  0.00    +0.001 A 
ATOM     19  C   UNL     1      19.626  -0.830  53.475  1.00  0.00    +0.029 A 
ATOM     20  C   UNL     1      19.060  -0.201  52.365  1.00  0.00    +0.002 A 
ENDBRANCH  10  11
ENDBRANCH   9  10
ENDBRANCH   1   9
TORSDOF 6
ENDMDL
MODEL 3
REMARK VINA RESULT:    -5.769      2.202      5.042
REMARK INTER + INTRA:          -8.328
REMARK INTER:                  -7.738
REMARK INTRA:                  -0.589
REMARK UNBOUND:                -0.704
REMARK SMILES C[N+](C)(C)C[C@H](O)COc1ccnc2ccccc12
REMARK SMILES IDX 6 1 5 2 2 3 1 4 3 5 4 6 7 7 8 9 9 10 10 11 11 12 19 13 12 14
REMARK SMILES IDX 18 15 14 16 13 17 17 18 15 19 16 20
REMARK H PARENT 7 8
ROOT
ATOM      1  C   UNL     1      23.806   3.945  52.171  1.00  0.00    +0.206 C 
ENDROOT
BRANCH   1   2
ATOM      2  C   UNL     1      23.674   5.309  51.461  1.00  0.00    +0.299 C 
BRANCH   2   3
ATOM      3  N   UNL     1      22.314   5.552  50.748  1.00  0.00    -0.329 N 
ATOM      4  C   UNL     1      21.262   4.683  51.439  1.00  0.00    +0.334 C 
ATOM      5  C   UNL     1      21.883   7.008  50.847  1.00  0.00    +0.334 C 
ATOM      6  C   UNL     1      22.373   5.142  49.276  1.00  0.00    +0.334 C 
ENDBRANCH   2   3
ENDBRANCH   1   2
BRANCH   1   7
ATOM      7  O   UNL     1      24.332   4.129  53.492  1.00  0.00    -0.384 OA
ATOM      8  H   UNL     1      24.097   5.042  53.762  1.00  0.00    +0.211 HD
ENDBRANCH   1   7
BRANCH   1   9
ATOM      9  C   UNL     1      24.759   3.026  51.389  1.00  0.00    +0.267 C 
BRANCH   9  10
ATOM     10  O   UNL     1      24.169   1.723  51.402  1.00  0.00    -0.490 OA
BRANCH  10  11
ATOM     11  C   UNL     1      24.619   0.827  52.342  1.00  0.00    +0.130 A 
ATOM     12  C   UNL     1      25.950   0.449  52.489  1.00  0.00    +0.067 A 
ATOM     13  C   UNL     1      23.638   0.284  53.207  1.00  0.00    +0.042 A 
ATOM     14  C   UNL     1      26.261  -0.460  53.482  1.00  0.00    +0.115 A 
ATOM     15  C   UNL     1      22.264   0.615  53.136  1.00  0.00    +0.014 A 
ATOM     16  C   UNL     1      24.070  -0.637  54.184  1.00  0.00    +0.074 A 
ATOM     17  N   UNL     1      25.354  -1.002  54.315  1.00  0.00    -0.256 NA
ATOM     18  C   UNL     1      21.341   0.048  54.013  1.00  0.00    +0.001 A 
ATOM     19  C   UNL     1      23.130  -1.188  55.046  1.00  0.00    +0.029 A 
ATOM     20  C   UNL     1      21.776  -0.857  54.971  1.00  0.00    +0.002 A 
ENDBRANCH  10  11
ENDBRANCH   9  10
ENDBRANCH   1   9
TORSDOF 6
ENDMDL
MODEL 4
REMARK VINA RESULT:    -5.762      1.959      2.835
REMARK INTER + INTRA:          -8.318
REMARK INTER:                  -7.853
REMARK INTRA:                  -0.465
REMARK UNBOUND:                -0.704
REMARK SMILES C[N+](C)(C)C[C@H](O)COc1ccnc2ccccc12
REMARK SMILES IDX 6 1 5 2 2 3 1 4 3 5 4 6 7 7 8 9 9 10 10 11 11 12 19 13 12 14
REMARK SMILES IDX 18 15 14 16 13 17 17 18 15 19 16 20
REMARK H PARENT 7 8
ROOT
ATOM      1  C   UNL     1      27.070  -1.460  53.394  1.00  0.00    +0.206 C 
ENDROOT
BRANCH   1   2
ATOM      2  C   UNL     1      27.832  -0.244  52.831  1.00  0.00    +0.299 C 
BRANCH   2   3
ATOM      3  N   UNL     1      28.758   0.484  53.847  1.00  0.00    -0.329 N 
ATOM      4  C   UNL     1      30.178  -0.049  53.649  1.00  0.00    +0.334 C 
ATOM      5  C   UNL     1      28.767   1.988  53.617  1.00  0.00    +0.334 C 
ATOM      6  C   UNL     1      28.341   0.196  55.289  1.00  0.00    +0.334 C 
ENDBRANCH   2   3
ENDBRANCH   1   2
BRANCH   1   7
ATOM      7  O   UNL     1      27.612  -2.673  52.853  1.00  0.00    -0.384 OA
ATOM      8  H   UNL     1      26.849  -3.216  52.565  1.00  0.00    +0.211 HD
ENDBRANCH   1   7
BRANCH   1   9
ATOM      9  C   UNL     1      25.581  -1.379  53.018  1.00  0.00    +0.267 C 
BRANCH   9  10
ATOM     10  O   UNL     1      24.977  -0.468  53.941  1.00  0.00    -0.490 OA
BRANCH  10  11
ATOM     11  C   UNL     1      24.080   0.446  53.443  1.00  0.00    +0.130 A 
ATOM     12  C   UNL     1      24.440   1.658  52.862  1.00  0.00    +0.067 A 
ATOM     13  C   UNL     1      22.712   0.091  53.533  1.00  0.00    +0.042 A 
ATOM     14  C   UNL     1      23.430   2.480  52.398  1.00  0.00    +0.115 A 
ATOM     15  C   UNL     1      22.255  -1.122  54.100  1.00  0.00    +0.014 A 
ATOM     16  C   UNL     1      21.767   1.008  53.028  1.00  0.00    +0.074 A 
ATOM     17  N   UNL     1      22.121   2.179  52.475  1.00  0.00    -0.256 NA
ATOM     18  C   UNL     1      20.895  -1.419  54.164  1.00  0.00    +0.001 A 
ATOM     19  C   UNL     1      20.417   0.689  53.104  1.00  0.00    +0.029 A 
ATOM     20  C   UNL     1      19.973  -0.510  53.664  1.00  0.00    +0.002 A 
ENDBRANCH  10  11
ENDBRANCH   9  10
ENDBRANCH   1   9
TORSDOF 6
ENDMDL
MODEL 5
REMARK VINA RESULT:    -5.729      1.858      3.386
REMARK INTER + INTRA:          -8.275
REMARK INTER:                  -7.839
REMARK INTRA:                  -0.437
REMARK UNBOUND:                -0.704
REMARK SMILES C[N+](C)(C)C[C@H](O)COc1ccnc2ccccc12
REMARK SMILES IDX 6 1 5 2 2 3 1 4 3 5 4 6 7 7 8 9 9 10 10 11 11 12 19 13 12 14
REMARK SMILES IDX 18 15 14 16 13 17 17 18 15 19 16 20
REMARK H PARENT 7 8
ROOT
ATOM      1  C   UNL     1      26.793  -1.224  53.267  1.00  0.00    +0.206 C 
ENDROOT
BRANCH   1   2
ATOM      2  C   UNL     1      27.692  -0.079  52.756  1.00  0.00    +0.299 C 
BRANCH   2   3
ATOM      3  N   UNL     1      28.664   0.519  53.812  1.00  0.00    -0.329 N 
ATOM      4  C   UNL     1      30.042  -0.105  53.583  1.00  0.00    +0.334 C 
ATOM      5  C   UNL     1      28.785   2.028  53.670  1.00  0.00    +0.334 C 
ATOM      6  C   UNL     1      28.222   0.179  55.236  1.00  0.00    +0.334 C 
ENDBRANCH   2   3
ENDBRANCH   1   2
BRANCH   1   7
ATOM      7  O   UNL     1      27.273  -2.482  52.774  1.00  0.00    -0.384 OA
ATOM      8  H   UNL     1      27.685  -2.942  53.535  1.00  0.00    +0.211 HD
ENDBRANCH   1   7
BRANCH   1   9
ATOM      9  C   UNL     1      25.347  -1.027  52.780  1.00  0.00    +0.267 C 
BRANCH   9  10
ATOM     10  O   UNL     1      24.707  -0.180  53.740  1.00  0.00    -0.490 OA
BRANCH  10  11
ATOM     11  C   UNL     1      23.337  -0.242  53.834  1.00  0.00    +0.130 A 
ATOM     12  C   UNL     1      22.641  -1.286  54.435  1.00  0.00    +0.067 A 
ATOM     13  C   UNL     1      22.624   0.850  53.284  1.00  0.00    +0.042 A 
ATOM     14  C   UNL     1      21.261  -1.215  54.462  1.00  0.00    +0.115 A 
ATOM     15  C   UNL     1      23.248   1.957  52.661  1.00  0.00    +0.014 A 
ATOM     16  C   UNL     1      21.216   0.816  53.367  1.00  0.00    +0.074 A 
ATOM     17  N   UNL     1      20.551  -0.197  53.942  1.00  0.00    -0.256 NA
ATOM     18  C   UNL     1      22.495   3.005  52.134  1.00  0.00    +0.001 A 
ATOM     19  C   UNL     1      20.488   1.873  52.834  1.00  0.00    +0.029 A 
ATOM     20  C   UNL     1      21.110   2.962  52.220  1.00  0.00    +0.002 A 
ENDBRANCH  10  11
ENDBRANCH   9  10
ENDBRANCH   1   9
TORSDOF 6
ENDMDL
MODEL 6
REMARK VINA RESULT:    -5.604      2.131      5.726
REMARK INTER + INTRA:          -8.110
REMARK INTER:                  -7.518
REMARK INTRA:                  -0.591
REMARK UNBOUND:                -0.704
REMARK SMILES C[N+](C)(C)C[C@H](O)COc1ccnc2ccccc12
REMARK SMILES IDX 6 1 5 2 2 3 1 4 3 5 4 6 7 7 8 9 9 10 10 11 11 12 19 13 12 14
REMARK SMILES IDX 18 15 14 16 13 17 17 18 15 19 16 20
REMARK H PARENT 7 8
ROOT
ATOM      1  C   UNL     1      20.761   2.065  51.986  1.00  0.00    +0.206 C 
ENDROOT
BRANCH   1   2
ATOM      2  C   UNL     1      22.053   2.626  51.358  1.00  0.00    +0.299 C 
BRANCH   2   3
ATOM      3  N   UNL     1      22.062   2.683  49.804  1.00  0.00    -0.329 N 
ATOM      4  C   UNL     1      23.493   2.989  49.357  1.00  0.00    +0.334 C 
ATOM      5  C   UNL     1      21.637   1.356  49.194  1.00  0.00    +0.334 C 
ATOM      6  C   UNL     1      21.154   3.795  49.279  1.00  0.00    +0.334 C 
ENDBRANCH   2   3
ENDBRANCH   1   2
BRANCH   1   7
ATOM      7  O   UNL     1      20.127   3.071  52.787  1.00  0.00    -0.384 OA
ATOM      8  H   UNL     1      19.307   3.328  52.315  1.00  0.00    +0.211 HD
ENDBRANCH   1   7
BRANCH   1   9
ATOM      9  C   UNL     1      21.083   0.857  52.882  1.00  0.00    +0.267 C 
BRANCH   9  10
ATOM     10  O   UNL     1      22.374   0.387  52.482  1.00  0.00    -0.490 OA
BRANCH  10  11
ATOM     11  C   UNL     1      23.189  -0.148  53.452  1.00  0.00    +0.130 A 
ATOM     12  C   UNL     1      22.728  -0.855  54.557  1.00  0.00    +0.067 A 
ATOM     13  C   UNL     1      24.580   0.044  53.273  1.00  0.00    +0.042 A 
ATOM     14  C   UNL     1      23.662  -1.341  55.453  1.00  0.00    +0.115 A 
ATOM     15  C   UNL     1      25.139   0.743  52.176  1.00  0.00    +0.014 A 
ATOM     16  C   UNL     1      25.442  -0.495  54.251  1.00  0.00    +0.074 A 
ATOM     17  N   UNL     1      24.991  -1.170  55.319  1.00  0.00    -0.256 NA
ATOM     18  C   UNL     1      26.518   0.903  52.052  1.00  0.00    +0.001 A 
ATOM     19  C   UNL     1      26.813  -0.322  54.104  1.00  0.00    +0.029 A 
ATOM     20  C   UNL     1      27.357   0.369  53.019  1.00  0.00    +0.002 A 
ENDBRANCH  10  11
ENDBRANCH   9  10
ENDBRANCH   1   9
TORSDOF 6
ENDMDL
MODEL 7
REMARK VINA RESULT:    -5.579      2.081      6.270
REMARK INTER + INTRA:          -8.077
REMARK INTER:                  -7.544
REMARK INTRA:                  -0.532
REMARK UNBOUND:                -0.704
REMARK SMILES C[N+](C)(C)C[C@H](O)COc1ccnc2ccccc12
REMARK SMILES IDX 6 1 5 2 2 3 1 4 3 5 4 6 7 7 8 9 9 10 10 11 11 12 19 13 12 14
REMARK SMILES IDX 18 15 14 16 13 17 17 18 15 19 16 20
REMARK H PARENT 7 8
ROOT
ATOM      1  C   UNL     1      21.607  -0.846  53.849  1.00  0.00    +0.206 C 
ENDROOT
BRANCH   1   2
ATOM      2  C   UNL     1      20.872   0.498  53.676  1.00  0.00    +0.299 C 
BRANCH   2   3
ATOM      3  N   UNL     1      20.102   0.663  52.335  1.00  0.00    -0.329 N 
ATOM      4  C   UNL     1      18.844  -0.205  52.410  1.00  0.00    +0.334 C 
ATOM      5  C   UNL     1      19.683   2.107  52.104  1.00  0.00    +0.334 C 
ATOM      6  C   UNL     1      20.937   0.183  51.148  1.00  0.00    +0.334 C 
ENDBRANCH   2   3
ENDBRANCH   1   2
BRANCH   1   7
ATOM      7  O   UNL     1      21.106  -1.536  55.002  1.00  0.00    -0.384 OA
ATOM      8  H   UNL     1      20.128  -1.494  54.949  1.00  0.00    +0.211 HD
ENDBRANCH   1   7
BRANCH   1   9
ATOM      9  C   UNL     1      23.115  -0.610  54.038  1.00  0.00    +0.267 C 
BRANCH   9  10
ATOM     10  O   UNL     1      23.412   0.643  53.415  1.00  0.00    -0.490 OA
BRANCH  10  11
ATOM     11  C   UNL     1      24.723   0.904  53.094  1.00  0.00    +0.130 A 
ATOM     12  C   UNL     1      25.814   0.406  53.800  1.00  0.00    +0.067 A 
ATOM     13  C   UNL     1      24.937   1.725  51.961  1.00  0.00    +0.042 A 
ATOM     14  C   UNL     1      27.080   0.747  53.362  1.00  0.00    +0.115 A 
ATOM     15  C   UNL     1      23.889   2.268  51.180  1.00  0.00    +0.014 A 
ATOM     16  C   UNL     1      26.272   2.008  51.605  1.00  0.00    +0.074 A 
ATOM     17  N   UNL     1      27.320   1.530  52.295  1.00  0.00    -0.256 NA
ATOM     18  C   UNL     1      24.159   3.072  50.074  1.00  0.00    +0.001 A 
ATOM     19  C   UNL     1      26.515   2.812  50.499  1.00  0.00    +0.029 A 
ATOM     20  C   UNL     1      25.477   3.345  49.732  1.00  0.00    +0.002 A 
ENDBRANCH  10  11
ENDBRANCH   9  10
ENDBRANCH   1   9
TORSDOF 6
ENDMDL
MODEL 8
REMARK VINA RESULT:    -5.550      1.916      6.016
REMARK INTER + INTRA:          -8.038
REMARK INTER:                  -7.635
REMARK INTRA:                  -0.404
REMARK UNBOUND:                -0.704
REMARK SMILES C[N+](C)(C)C[C@H](O)COc1ccnc2ccccc12
REMARK SMILES IDX 6 1 5 2 2 3 1 4 3 5 4 6 7 7 8 9 9 10 10 11 11 12 19 13 12 14
REMARK SMILES IDX 18 15 14 16 13 17 17 18 15 19 16 20
REMARK H PARENT 7 8
ROOT
ATOM      1  C   UNL     1      22.188  -0.917  53.749  1.00  0.00    +0.206 C 
ENDROOT
BRANCH   1   2
ATOM      2  C   UNL     1      21.559   0.491  53.704  1.00  0.00    +0.299 C 
BRANCH   2   3
ATOM      3  N   UNL     1      20.576   0.737  52.524  1.00  0.00    -0.329 N 
ATOM      4  C   UNL     1      20.124   2.197  52.591  1.00  0.00    +0.334 C 
ATOM      5  C   UNL     1      21.245   0.497  51.180  1.00  0.00    +0.334 C 
ATOM      6  C   UNL     1      19.335  -0.148  52.636  1.00  0.00    +0.334 C 
ENDBRANCH   2   3
ENDBRANCH   1   2
BRANCH   1   7
ATOM      7  O   UNL     1      21.968  -1.512  55.036  1.00  0.00    -0.384 OA
ATOM      8  H   UNL     1      22.454  -2.363  55.037  1.00  0.00    +0.211 HD
ENDBRANCH   1   7
BRANCH   1   9
ATOM      9  C   UNL     1      23.704  -0.833  53.502  1.00  0.00    +0.267 C 
BRANCH   9  10
ATOM     10  O   UNL     1      24.109   0.480  53.903  1.00  0.00    -0.490 OA
BRANCH  10  11
ATOM     11  C   UNL     1      25.077   1.107  53.154  1.00  0.00    +0.130 A 
ATOM     12  C   UNL     1      24.820   1.845  52.004  1.00  0.00    +0.067 A 
ATOM     13  C   UNL     1      26.407   0.980  53.623  1.00  0.00    +0.042 A 
ATOM     14  C   UNL     1      25.892   2.426  51.353  1.00  0.00    +0.115 A 
ATOM     15  C   UNL     1      26.761   0.255  54.786  1.00  0.00    +0.014 A 
ATOM     16  C   UNL     1      27.423   1.614  52.878  1.00  0.00    +0.074 A 
ATOM     17  N   UNL     1      27.169   2.319  51.764  1.00  0.00    -0.256 NA
ATOM     18  C   UNL     1      28.088   0.162  55.200  1.00  0.00    +0.001 A 
ATOM     19  C   UNL     1      28.739   1.506  53.311  1.00  0.00    +0.029 A 
ATOM     20  C   UNL     1      29.081   0.789  54.459  1.00  0.00    +0.002 A 
ENDBRANCH  10  11
ENDBRANCH   9  10
ENDBRANCH   1   9
TORSDOF 6
ENDMDL
MODEL 9
REMARK VINA RESULT:    -5.459      1.851      4.778
REMARK INTER + INTRA:          -7.918
REMARK INTER:                  -7.317
REMARK INTRA:                  -0.602
REMARK UNBOUND:                -0.704
REMARK SMILES C[N+](C)(C)C[C@H](O)COc1ccnc2ccccc12
REMARK SMILES IDX 6 1 5 2 2 3 1 4 3 5 4 6 7 7 8 9 9 10 10 11 11 12 19 13 12 14
REMARK SMILES IDX 18 15 14 16 13 17 17 18 15 19 16 20
REMARK H PARENT 7 8
ROOT
ATOM      1  C   UNL     1      25.719   3.560  50.511  1.00  0.00    +0.206 C 
ENDROOT
BRANCH   1   2
ATOM      2  C   UNL     1      24.261   3.120  50.266  1.00  0.00    +0.299 C 
BRANCH   2   3
ATOM      3  N   UNL     1      23.177   4.102  50.794  1.00  0.00    -0.329 N 
ATOM      4  C   UNL     1      22.347   4.568  49.597  1.00  0.00    +0.334 C 
ATOM      5  C   UNL     1      22.251   3.427  51.795  1.00  0.00    +0.334 C 
ATOM      6  C   UNL     1      23.808   5.335  51.441  1.00  0.00    +0.334 C 
ENDBRANCH   2   3
ENDBRANCH   1   2
BRANCH   1   7
ATOM      7  O   UNL     1      26.344   3.903  49.266  1.00  0.00    -0.384 OA
ATOM      8  H   UNL     1      26.799   3.094  48.950  1.00  0.00    +0.211 HD
ENDBRANCH   1   7
BRANCH   1   9
ATOM      9  C   UNL     1      26.520   2.419  51.162  1.00  0.00    +0.267 C 
BRANCH   9  10
ATOM     10  O   UNL     1      25.560   1.504  51.699  1.00  0.00    -0.490 OA
BRANCH  10  11
ATOM     11  C   UNL     1      25.886   0.844  52.860  1.00  0.00    +0.130 A 
ATOM     12  C   UNL     1      27.164   0.816  53.410  1.00  0.00    +0.067 A 
ATOM     13  C   UNL     1      24.826   0.171  53.514  1.00  0.00    +0.042 A 
ATOM     14  C   UNL     1      27.347   0.114  54.587  1.00  0.00    +0.115 A 
ATOM     15  C   UNL     1      23.496   0.152  53.031  1.00  0.00    +0.014 A 
ATOM     16  C   UNL     1      25.130  -0.514  54.709  1.00  0.00    +0.074 A 
ATOM     17  N   UNL     1      26.366  -0.543  55.231  1.00  0.00    -0.256 NA
ATOM     18  C   UNL     1      22.492  -0.529  53.717  1.00  0.00    +0.001 A 
ATOM     19  C   UNL     1      24.110  -1.185  55.373  1.00  0.00    +0.029 A 
ATOM     20  C   UNL     1      22.800  -1.200  54.892  1.00  0.00    +0.002 A 
ENDBRANCH  10  11
ENDBRANCH   9  10
ENDBRANCH   1   9
TORSDOF 6
ENDMDL
