MODEL 1
REMARK VINA RESULT:    -6.846      0.000      0.000
REMARK INTER + INTRA:          -7.525
REMARK INTER:                  -7.246
REMARK INTRA:                  -0.279
REMARK UNBOUND:                -0.279
REMARK SMILES Fc1ccc(-c2ccccc2)cc1Cl
REMARK SMILES IDX 1 1 2 2 3 3 4 4 5 5 12 6 13 7 14 8 6 9 7 10 11 11 8 12 10 13
REMARK SMILES IDX 9 14
REMARK H PARENT
ROOT
ATOM      1  F   UNL     1      21.686   0.877  52.618  1.00  0.00    -0.205 F 
ATOM      2  C   UNL     1      22.984   0.585  52.779  1.00  0.00    +0.141 A 
ATOM      3  C   UNL     1      23.920   1.248  51.994  1.00  0.00    +0.041 A 
ATOM      4  C   UNL     1      25.279   0.959  52.147  1.00  0.00    +0.012 A 
ATOM      5  C   UNL     1      25.717   0.004  53.083  1.00  0.00    -0.017 A 
ATOM      6  C   UNL     1      24.750  -0.653  53.864  1.00  0.00    +0.032 A 
ATOM      7  C   UNL     1      23.392  -0.364  53.712  1.00  0.00    +0.077 A 
ATOM      8 Cl   UNL     1      22.237  -1.187  54.688  1.00  0.00    -0.081 Cl
ENDROOT
BRANCH   5   9
ATOM      9  C   UNL     1      27.150  -0.299  53.240  1.00  0.00    -0.018 A 
ATOM     10  C   UNL     1      28.063   0.698  53.623  1.00  0.00    +0.009 A 
ATOM     11  C   UNL     1      27.646  -1.592  53.010  1.00  0.00    +0.009 A 
ATOM     12  C   UNL     1      29.422   0.412  53.773  1.00  0.00    +0.001 A 
ATOM     13  C   UNL     1      29.005  -1.880  53.157  1.00  0.00    +0.001 A 
ATOM     14  C   UNL     1      29.893  -0.877  53.539  1.00  0.00    +0.000 A 
ENDBRANCH   5   9
TORSDOF 1
ENDMDL
MODEL 2
REMARK VINA RESULT:    -6.657      1.679      2.583
REMARK INTER + INTRA:          -7.325
REMARK INTER:                  -7.045
REMARK INTRA:                  -0.280
REMARK UNBOUND:                -0.279
REMARK SMILES Fc1ccc(-c2ccccc2)cc1Cl
REMARK SMILES IDX 1 1 2 2 3 3 4 4 5 5 12 6 13 7 14 8 6 9 7 10 11 11 8 12 10 13
REMARK SMILES IDX 9 14
REMARK H PARENT
ROOT
ATOM      1  F   UNL     1      20.683  -1.111  54.440  1.00  0.00    -0.205 F 
ATOM      2  C   UNL     1      22.013  -0.969  54.356  1.00  0.00    +0.141 A 
ATOM      3  C   UNL     1      22.798  -1.381  55.427  1.00  0.00    +0.041 A 
ATOM      4  C   UNL     1      24.187  -1.241  55.360  1.00  0.00    +0.012 A 
ATOM      5  C   UNL     1      24.806  -0.688  54.224  1.00  0.00    -0.017 A 
ATOM      6  C   UNL     1      23.989  -0.279  53.154  1.00  0.00    +0.032 A 
ATOM      7  C   UNL     1      22.601  -0.419  53.222  1.00  0.00    +0.077 A 
ATOM      8 Cl   UNL     1      21.635   0.092  51.891  1.00  0.00    -0.081 Cl
ENDROOT
BRANCH   5   9
ATOM      9  C   UNL     1      26.270  -0.541  54.157  1.00  0.00    -0.018 A 
ATOM     10  C   UNL     1      27.012  -1.147  53.130  1.00  0.00    +0.009 A 
ATOM     11  C   UNL     1      26.968   0.207  55.119  1.00  0.00    +0.009 A 
ATOM     12  C   UNL     1      28.401  -1.009  53.065  1.00  0.00    +0.001 A 
ATOM     13  C   UNL     1      28.357   0.346  55.057  1.00  0.00    +0.001 A 
ATOM     14  C   UNL     1      29.073  -0.263  54.029  1.00  0.00    +0.000 A 
ENDBRANCH   5   9
TORSDOF 1
ENDMDL
MODEL 3
REMARK VINA RESULT:    -6.620      3.145      5.558
REMARK INTER + INTRA:          -7.285
REMARK INTER:                  -6.997
REMARK INTRA:                  -0.288
REMARK UNBOUND:                -0.279
REMARK SMILES Fc1ccc(-c2ccccc2)cc1Cl
REMARK SMILES IDX 1 1 2 2 3 3 4 4 5 5 12 6 13 7 14 8 6 9 7 10 11 11 8 12 10 13
REMARK SMILES IDX 9 14
REMARK H PARENT
ROOT
ATOM      1  F   UNL     1      30.404   0.217  53.582  1.00  0.00    -0.205 F 
ATOM      2  C   UNL     1      29.068   0.242  53.469  1.00  0.00    +0.141 A 
ATOM      3  C   UNL     1      28.416   1.469  53.515  1.00  0.00    +0.041 A 
ATOM      4  C   UNL     1      27.024   1.516  53.399  1.00  0.00    +0.012 A 
ATOM      5  C   UNL     1      26.269   0.341  53.237  1.00  0.00    -0.017 A 
ATOM      6  C   UNL     1      26.953  -0.888  53.194  1.00  0.00    +0.032 A 
ATOM      7  C   UNL     1      28.344  -0.936  53.309  1.00  0.00    +0.077 A 
ATOM      8 Cl   UNL     1      29.146  -2.458  53.250  1.00  0.00    -0.081 Cl
ENDROOT
BRANCH   5   9
ATOM      9  C   UNL     1      24.802   0.394  53.116  1.00  0.00    -0.018 A 
ATOM     10  C   UNL     1      23.985  -0.510  53.815  1.00  0.00    +0.009 A 
ATOM     11  C   UNL     1      24.177   1.350  52.299  1.00  0.00    +0.009 A 
ATOM     12  C   UNL     1      22.593  -0.460  53.701  1.00  0.00    +0.001 A 
ATOM     13  C   UNL     1      22.786   1.401  52.183  1.00  0.00    +0.001 A 
ATOM     14  C   UNL     1      21.994   0.495  52.885  1.00  0.00    +0.000 A 
ENDBRANCH   5   9
TORSDOF 1
ENDMDL
MODEL 4
REMARK VINA RESULT:    -6.610      3.159      5.679
REMARK INTER + INTRA:          -7.275
REMARK INTER:                  -7.000
REMARK INTRA:                  -0.275
REMARK UNBOUND:                -0.279
REMARK SMILES Fc1ccc(-c2ccccc2)cc1Cl
REMARK SMILES IDX 1 1 2 2 3 3 4 4 5 5 12 6 13 7 14 8 6 9 7 10 11 11 8 12 10 13
REMARK SMILES IDX 9 14
REMARK H PARENT
ROOT
ATOM      1  F   UNL     1      29.895  -1.125  53.251  1.00  0.00    -0.205 F 
ATOM      2  C   UNL     1      28.585  -0.848  53.306  1.00  0.00    +0.141 A 
ATOM      3  C   UNL     1      27.686  -1.758  52.762  1.00  0.00    +0.041 A 
ATOM      4  C   UNL     1      26.315  -1.488  52.809  1.00  0.00    +0.012 A 
ATOM      5  C   UNL     1      25.828  -0.308  53.400  1.00  0.00    -0.017 A 
ATOM      6  C   UNL     1      26.759   0.596  53.944  1.00  0.00    +0.032 A 
ATOM      7  C   UNL     1      28.129   0.327  53.896  1.00  0.00    +0.077 A 
ATOM      8 Cl   UNL     1      29.237   1.457  54.574  1.00  0.00    -0.081 Cl
ENDROOT
BRANCH   5   9
ATOM      9  C   UNL     1      24.384  -0.027  53.447  1.00  0.00    -0.018 A 
ATOM     10  C   UNL     1      23.524  -0.789  54.256  1.00  0.00    +0.009 A 
ATOM     11  C   UNL     1      23.822   1.011  52.685  1.00  0.00    +0.009 A 
ATOM     12  C   UNL     1      22.153  -0.523  54.302  1.00  0.00    +0.001 A 
ATOM     13  C   UNL     1      22.451   1.278  52.728  1.00  0.00    +0.001 A 
ATOM     14  C   UNL     1      21.617   0.510  53.537  1.00  0.00    +0.000 A 
ENDBRANCH   5   9
TORSDOF 1
ENDMDL
MODEL 5
REMARK VINA RESULT:    -6.601      1.680      2.478
REMARK INTER + INTRA:          -7.266
REMARK INTER:                  -6.988
REMARK INTRA:                  -0.278
REMARK UNBOUND:                -0.279
REMARK SMILES Fc1ccc(-c2ccccc2)cc1Cl
REMARK SMILES IDX 1 1 2 2 3 3 4 4 5 5 12 6 13 7 14 8 6 9 7 10 11 11 8 12 10 13
REMARK SMILES IDX 9 14
REMARK H PARENT
ROOT
ATOM      1  F   UNL     1      22.004   1.500  52.355  1.00  0.00    -0.205 F 
ATOM      2  C   UNL     1      23.233   0.988  52.511  1.00  0.00    +0.141 A 
ATOM      3  C   UNL     1      23.412  -0.055  53.412  1.00  0.00    +0.041 A 
ATOM      4  C   UNL     1      24.686  -0.603  53.591  1.00  0.00    +0.012 A 
ATOM      5  C   UNL     1      25.792  -0.116  52.872  1.00  0.00    -0.017 A 
ATOM      6  C   UNL     1      25.584   0.941  51.967  1.00  0.00    +0.032 A 
ATOM      7  C   UNL     1      24.311   1.488  51.788  1.00  0.00    +0.077 A 
ATOM      8 Cl   UNL     1      24.095   2.779  50.669  1.00  0.00    -0.081 Cl
ENDROOT
BRANCH   5   9
ATOM      9  C   UNL     1      27.133  -0.695  53.063  1.00  0.00    -0.018 A 
ATOM     10  C   UNL     1      27.380  -2.052  52.795  1.00  0.00    +0.009 A 
ATOM     11  C   UNL     1      28.203   0.091  53.520  1.00  0.00    +0.009 A 
ATOM     12  C   UNL     1      28.651  -2.603  52.976  1.00  0.00    +0.001 A 
ATOM     13  C   UNL     1      29.475  -0.458  53.703  1.00  0.00    +0.001 A 
ATOM     14  C   UNL     1      29.698  -1.805  53.431  1.00  0.00    +0.000 A 
ENDBRANCH   5   9
TORSDOF 1
ENDMDL
MODEL 6
REMARK VINA RESULT:    -6.558      3.000      5.453
REMARK INTER + INTRA:          -7.220
REMARK INTER:                  -6.916
REMARK INTRA:                  -0.304
REMARK UNBOUND:                -0.279
REMARK SMILES Fc1ccc(-c2ccccc2)cc1Cl
REMARK SMILES IDX 1 1 2 2 3 3 4 4 5 5 12 6 13 7 14 8 6 9 7 10 11 11 8 12 10 13
REMARK SMILES IDX 9 14
REMARK H PARENT
ROOT
ATOM      1  F   UNL     1      28.751   1.508  52.808  1.00  0.00    -0.205 F 
ATOM      2  C   UNL     1      27.478   1.120  52.969  1.00  0.00    +0.141 A 
ATOM      3  C   UNL     1      26.563   1.395  51.960  1.00  0.00    +0.041 A 
ATOM      4  C   UNL     1      25.230   1.000  52.109  1.00  0.00    +0.012 A 
ATOM      5  C   UNL     1      24.799   0.326  53.266  1.00  0.00    -0.017 A 
ATOM      6  C   UNL     1      25.745   0.059  54.272  1.00  0.00    +0.032 A 
ATOM      7  C   UNL     1      27.076   0.455  54.123  1.00  0.00    +0.077 A 
ATOM      8 Cl   UNL     1      28.206   0.109  55.376  1.00  0.00    -0.081 Cl
ENDROOT
BRANCH   5   9
ATOM      9  C   UNL     1      23.394  -0.089  53.419  1.00  0.00    -0.018 A 
ATOM     10  C   UNL     1      22.408   0.346  52.517  1.00  0.00    +0.009 A 
ATOM     11  C   UNL     1      22.998  -0.929  54.472  1.00  0.00    +0.009 A 
ATOM     12  C   UNL     1      21.075  -0.047  52.662  1.00  0.00    +0.001 A 
ATOM     13  C   UNL     1      21.665  -1.322  54.620  1.00  0.00    +0.001 A 
ATOM     14  C   UNL     1      20.704  -0.880  53.714  1.00  0.00    +0.000 A 
ENDBRANCH   5   9
TORSDOF 1
ENDMDL
MODEL 7
REMARK VINA RESULT:    -6.397      2.056      3.172
REMARK INTER + INTRA:          -7.050
REMARK INTER:                  -6.769
REMARK INTRA:                  -0.281
REMARK UNBOUND:                -0.279
REMARK SMILES Fc1ccc(-c2ccccc2)cc1Cl
REMARK SMILES IDX 1 1 2 2 3 3 4 4 5 5 12 6 13 7 14 8 6 9 7 10 11 11 8 12 10 13
REMARK SMILES IDX 9 14
REMARK H PARENT
ROOT
ATOM      1  F   UNL     1      19.313  -1.105  53.886  1.00  0.00    -0.205 F 
ATOM      2  C   UNL     1      20.600  -0.793  53.677  1.00  0.00    +0.141 A 
ATOM      3  C   UNL     1      21.542  -1.175  54.624  1.00  0.00    +0.041 A 
ATOM      4  C   UNL     1      22.889  -0.859  54.425  1.00  0.00    +0.012 A 
ATOM      5  C   UNL     1      23.308  -0.159  53.280  1.00  0.00    -0.017 A 
ATOM      6  C   UNL     1      22.335   0.216  52.336  1.00  0.00    +0.032 A 
ATOM      7  C   UNL     1      20.989  -0.100  52.535  1.00  0.00    +0.077 A 
ATOM      8 Cl   UNL     1      19.826   0.375  51.357  1.00  0.00    -0.081 Cl
ENDROOT
BRANCH   5   9
ATOM      9  C   UNL     1      24.729   0.172  53.073  1.00  0.00    -0.018 A 
ATOM     10  C   UNL     1      25.139   1.500  52.866  1.00  0.00    +0.009 A 
ATOM     11  C   UNL     1      25.714  -0.828  53.077  1.00  0.00    +0.009 A 
ATOM     12  C   UNL     1      26.486   1.816  52.670  1.00  0.00    +0.001 A 
ATOM     13  C   UNL     1      27.061  -0.515  52.880  1.00  0.00    +0.001 A 
ATOM     14  C   UNL     1      27.446   0.808  52.677  1.00  0.00    +0.000 A 
ENDBRANCH   5   9
TORSDOF 1
ENDMDL
MODEL 8
REMARK VINA RESULT:    -6.214      3.625      5.671
REMARK INTER + INTRA:          -6.855
REMARK INTER:                  -6.562
REMARK INTRA:                  -0.293
REMARK UNBOUND:                -0.279
REMARK SMILES Fc1ccc(-c2ccccc2)cc1Cl
REMARK SMILES IDX 1 1 2 2 3 3 4 4 5 5 12 6 13 7 14 8 6 9 7 10 11 11 8 12 10 13
REMARK SMILES IDX 9 14
REMARK H PARENT
ROOT
ATOM      1  F   UNL     1      22.788  -1.607  55.790  1.00  0.00    -0.205 F 
ATOM      2  C   UNL     1      22.709  -0.956  54.620  1.00  0.00    +0.141 A 
ATOM      3  C   UNL     1      21.461  -0.789  54.031  1.00  0.00    +0.041 A 
ATOM      4  C   UNL     1      21.357  -0.113  52.812  1.00  0.00    +0.012 A 
ATOM      5  C   UNL     1      22.497   0.401  52.169  1.00  0.00    -0.017 A 
ATOM      6  C   UNL     1      23.749   0.219  52.786  1.00  0.00    +0.032 A 
ATOM      7  C   UNL     1      23.852  -0.457  54.004  1.00  0.00    +0.077 A 
ATOM      8 Cl   UNL     1      25.401  -0.659  54.730  1.00  0.00    -0.081 Cl
ENDROOT
BRANCH   5   9
ATOM      9  C   UNL     1      22.384   1.112  50.884  1.00  0.00    -0.018 A 
ATOM     10  C   UNL     1      23.237   2.184  50.572  1.00  0.00    +0.009 A 
ATOM     11  C   UNL     1      21.420   0.740  49.933  1.00  0.00    +0.009 A 
ATOM     12  C   UNL     1      23.131   2.860  49.353  1.00  0.00    +0.001 A 
ATOM     13  C   UNL     1      21.312   1.415  48.714  1.00  0.00    +0.001 A 
ATOM     14  C   UNL     1      22.168   2.475  48.425  1.00  0.00    +0.000 A 
ENDBRANCH   5   9
TORSDOF 1
ENDMDL
MODEL 9
REMARK VINA RESULT:    -6.169      1.270      2.070
REMARK INTER + INTRA:          -6.809
REMARK INTER:                  -6.533
REMARK INTRA:                  -0.275
REMARK UNBOUND:                -0.279
REMARK SMILES Fc1ccc(-c2ccccc2)cc1Cl
REMARK SMILES IDX 1 1 2 2 3 3 4 4 5 5 12 6 13 7 14 8 6 9 7 10 11 11 8 12 10 13
REMARK SMILES IDX 9 14
REMARK H PARENT
ROOT
ATOM      1  F   UNL     1      20.266   1.730  52.661  1.00  0.00    -0.205 F 
ATOM      2  C   UNL     1      21.538   1.346  52.837  1.00  0.00    +0.141 A 
ATOM      3  C   UNL     1      22.556   2.190  52.408  1.00  0.00    +0.041 A 
ATOM      4  C   UNL     1      23.890   1.808  52.582  1.00  0.00    +0.012 A 
ATOM      5  C   UNL     1      24.220   0.581  53.185  1.00  0.00    -0.017 A 
ATOM      6  C   UNL     1      23.171  -0.255  53.611  1.00  0.00    +0.032 A 
ATOM      7  C   UNL     1      21.839   0.127  53.437  1.00  0.00    +0.077 A 
ATOM      8 Cl   UNL     1      20.582  -0.922  53.972  1.00  0.00    -0.081 Cl
ENDROOT
BRANCH   5   9
ATOM      9  C   UNL     1      25.626   0.182  53.366  1.00  0.00    -0.018 A 
ATOM     10  C   UNL     1      26.165  -0.908  52.662  1.00  0.00    +0.009 A 
ATOM     11  C   UNL     1      26.469   0.877  54.248  1.00  0.00    +0.009 A 
ATOM     12  C   UNL     1      27.499  -1.288  52.833  1.00  0.00    +0.001 A 
ATOM     13  C   UNL     1      27.803   0.498  54.422  1.00  0.00    +0.001 A 
ATOM     14  C   UNL     1      28.317  -0.585  53.713  1.00  0.00    +0.000 A 
ENDBRANCH   5   9
TORSDOF 1
ENDMDL
