MODEL 1
REMARK VINA RESULT:    -7.100      0.000      0.000
REMARK INTER + INTRA:          -8.663
REMARK INTER:                  -8.552
REMARK INTRA:                  -0.111
REMARK UNBOUND:                -0.111
REMARK SMILES CN(C)/N=N/c1ccc2ncnc(C(=O)O)c2c1
REMARK SMILES IDX 6 1 7 2 8 3 9 4 10 5 11 6 12 7 13 8 17 9 18 10 5 11 4 12
REMARK SMILES IDX 2 13 1 14 3 15 14 16 15 17 16 18
REMARK H PARENT 16 19
ROOT
ATOM      1  C   UNL     1      24.879   0.722  53.081  1.00  0.00    +0.088 A 
ATOM      2  C   UNL     1      25.371   1.962  53.476  1.00  0.00    +0.032 A 
ATOM      3  C   UNL     1      26.734   2.125  53.734  1.00  0.00    +0.031 A 
ATOM      4  C   UNL     1      27.635   1.075  53.618  1.00  0.00    +0.075 A 
ATOM      5  N   UNL     1      28.919   1.332  53.883  1.00  0.00    -0.236 NA
ATOM      6  C   UNL     1      29.786   0.322  53.771  1.00  0.00    +0.223 A 
ATOM      7  N   UNL     1      29.484  -0.924  53.423  1.00  0.00    -0.229 NA
ATOM      8  C   UNL     1      28.174  -1.168  53.158  1.00  0.00    +0.159 A 
ATOM      9  C   UNL     1      27.165  -0.188  53.236  1.00  0.00    +0.036 A 
ATOM     10  C   UNL     1      25.772  -0.347  52.972  1.00  0.00    +0.043 A 
ENDROOT
BRANCH   1  11
ATOM     11  N   UNL     1      23.511   0.527  52.840  1.00  0.00    -0.133 NA
ATOM     12  N   UNL     1      23.124  -0.508  53.416  1.00  0.00    -0.072 NA
BRANCH  12  13
ATOM     13  N   UNL     1      21.789  -0.775  53.226  1.00  0.00    -0.285 N 
ATOM     14  C   UNL     1      20.952   0.184  52.517  1.00  0.00    +0.169 C 
ATOM     15  C   UNL     1      21.175  -1.474  54.341  1.00  0.00    +0.169 C 
ENDBRANCH  12  13
ENDBRANCH   1  11
BRANCH   8  16
ATOM     16  C   UNL     1      27.870  -2.591  52.776  1.00  0.00    +0.355 C 
ATOM     17  O   UNL     1      27.038  -2.989  51.981  1.00  0.00    -0.245 OA
BRANCH  16  18
ATOM     18  O   UNL     1      28.648  -3.482  53.428  1.00  0.00    -0.476 OA
ATOM     19  H   UNL     1      29.556  -3.128  53.344  1.00  0.00    +0.297 HD
ENDBRANCH  16  18
ENDBRANCH   8  16
TORSDOF 4
ENDMDL
MODEL 2
REMARK VINA RESULT:    -6.782      2.585      3.423
REMARK INTER + INTRA:          -8.280
REMARK INTER:                  -8.030
REMARK INTRA:                  -0.250
REMARK UNBOUND:                -0.111
REMARK SMILES CN(C)/N=N/c1ccc2ncnc(C(=O)O)c2c1
REMARK SMILES IDX 6 1 7 2 8 3 9 4 10 5 11 6 12 7 13 8 17 9 18 10 5 11 4 12
REMARK SMILES IDX 2 13 1 14 3 15 14 16 15 17 16 18
REMARK H PARENT 16 19
ROOT
ATOM      1  C   UNL     1      25.194   0.931  53.163  1.00  0.00    +0.088 A 
ATOM      2  C   UNL     1      24.999  -0.414  52.867  1.00  0.00    +0.032 A 
ATOM      3  C   UNL     1      26.076  -1.303  52.905  1.00  0.00    +0.031 A 
ATOM      4  C   UNL     1      27.362  -0.888  53.224  1.00  0.00    +0.075 A 
ATOM      5  N   UNL     1      28.324  -1.815  53.237  1.00  0.00    -0.236 NA
ATOM      6  C   UNL     1      29.561  -1.415  53.544  1.00  0.00    +0.223 A 
ATOM      7  N   UNL     1      29.924  -0.169  53.835  1.00  0.00    -0.229 NA
ATOM      8  C   UNL     1      28.933   0.759  53.815  1.00  0.00    +0.159 A 
ATOM      9  C   UNL     1      27.590   0.465  53.512  1.00  0.00    +0.036 A 
ATOM     10  C   UNL     1      26.485   1.366  53.473  1.00  0.00    +0.043 A 
ENDROOT
BRANCH   1  11
ATOM     11  N   UNL     1      24.133   1.848  53.107  1.00  0.00    -0.133 NA
ATOM     12  N   UNL     1      23.087   1.263  52.765  1.00  0.00    -0.072 NA
BRANCH  12  13
ATOM     13  N   UNL     1      21.995   2.095  52.682  1.00  0.00    -0.285 N 
ATOM     14  C   UNL     1      20.656   1.551  52.866  1.00  0.00    +0.169 C 
ATOM     15  C   UNL     1      22.142   3.142  51.688  1.00  0.00    +0.169 C 
ENDBRANCH  12  13
ENDBRANCH   1  11
BRANCH   8  16
ATOM     16  C   UNL     1      29.384   2.158  54.140  1.00  0.00    +0.355 C 
ATOM     17  O   UNL     1      29.762   2.590  55.214  1.00  0.00    -0.245 OA
BRANCH  16  18
ATOM     18  O   UNL     1      29.341   2.980  53.069  1.00  0.00    -0.476 OA
ATOM     19  H   UNL     1      29.379   2.383  52.296  1.00  0.00    +0.297 HD
ENDBRANCH  16  18
ENDBRANCH   8  16
TORSDOF 4
ENDMDL
MODEL 3
REMARK VINA RESULT:    -6.775      2.695      6.194
REMARK INTER + INTRA:          -8.272
REMARK INTER:                  -8.201
REMARK INTRA:                  -0.071
REMARK UNBOUND:                -0.111
REMARK SMILES CN(C)/N=N/c1ccc2ncnc(C(=O)O)c2c1
REMARK SMILES IDX 6 1 7 2 8 3 9 4 10 5 11 6 12 7 13 8 17 9 18 10 5 11 4 12
REMARK SMILES IDX 2 13 1 14 3 15 14 16 15 17 16 18
REMARK H PARENT 16 19
ROOT
ATOM      1  C   UNL     1      25.577  -0.328  53.130  1.00  0.00    +0.088 A 
ATOM      2  C   UNL     1      25.701   0.780  52.298  1.00  0.00    +0.032 A 
ATOM      3  C   UNL     1      24.576   1.545  51.978  1.00  0.00    +0.031 A 
ATOM      4  C   UNL     1      23.312   1.232  52.460  1.00  0.00    +0.075 A 
ATOM      5  N   UNL     1      22.301   2.027  52.101  1.00  0.00    -0.236 NA
ATOM      6  C   UNL     1      21.085   1.726  52.566  1.00  0.00    +0.223 A 
ATOM      7  N   UNL     1      20.789   0.698  53.354  1.00  0.00    -0.229 NA
ATOM      8  C   UNL     1      21.829  -0.100  53.708  1.00  0.00    +0.159 A 
ATOM      9  C   UNL     1      23.157   0.112  53.289  1.00  0.00    +0.036 A 
ATOM     10  C   UNL     1      24.309  -0.663  53.612  1.00  0.00    +0.043 A 
ENDROOT
BRANCH   1  11
ATOM     11  N   UNL     1      26.687  -1.127  53.445  1.00  0.00    -0.133 NA
ATOM     12  N   UNL     1      27.733  -0.455  53.345  1.00  0.00    -0.072 NA
BRANCH  12  13
ATOM     13  N   UNL     1      28.872  -1.168  53.634  1.00  0.00    -0.285 N 
ATOM     14  C   UNL     1      30.158  -0.485  53.690  1.00  0.00    +0.169 C 
ATOM     15  C   UNL     1      28.871  -2.509  53.078  1.00  0.00    +0.169 C 
ENDBRANCH  12  13
ENDBRANCH   1  11
BRANCH   8  16
ATOM     16  C   UNL     1      21.452  -1.258  54.593  1.00  0.00    +0.355 C 
ATOM     17  O   UNL     1      22.129  -1.790  55.454  1.00  0.00    -0.245 OA
BRANCH  16  18
ATOM     18  O   UNL     1      20.203  -1.712  54.352  1.00  0.00    -0.476 OA
ATOM     19  H   UNL     1      19.746  -0.963  53.920  1.00  0.00    +0.297 HD
ENDBRANCH  16  18
ENDBRANCH   8  16
TORSDOF 4
ENDMDL
MODEL 4
REMARK VINA RESULT:    -6.655      3.078      6.493
REMARK INTER + INTRA:          -8.128
REMARK INTER:                  -7.880
REMARK INTRA:                  -0.249
REMARK UNBOUND:                -0.111
REMARK SMILES CN(C)/N=N/c1ccc2ncnc(C(=O)O)c2c1
REMARK SMILES IDX 6 1 7 2 8 3 9 4 10 5 11 6 12 7 13 8 17 9 18 10 5 11 4 12
REMARK SMILES IDX 2 13 1 14 3 15 14 16 15 17 16 18
REMARK H PARENT 16 19
ROOT
ATOM      1  C   UNL     1      25.362  -0.239  54.106  1.00  0.00    +0.088 A 
ATOM      2  C   UNL     1      25.020  -1.017  55.208  1.00  0.00    +0.032 A 
ATOM      3  C   UNL     1      23.690  -1.394  55.414  1.00  0.00    +0.031 A 
ATOM      4  C   UNL     1      22.674  -1.009  54.550  1.00  0.00    +0.075 A 
ATOM      5  N   UNL     1      21.436  -1.424  54.830  1.00  0.00    -0.236 NA
ATOM      6  C   UNL     1      20.458  -1.054  53.999  1.00  0.00    +0.223 A 
ATOM      7  N   UNL     1      20.607  -0.301  52.913  1.00  0.00    -0.229 NA
ATOM      8  C   UNL     1      21.872   0.112  52.644  1.00  0.00    +0.159 A 
ATOM      9  C   UNL     1      22.988  -0.213  53.440  1.00  0.00    +0.036 A 
ATOM     10  C   UNL     1      24.348   0.167  53.235  1.00  0.00    +0.043 A 
ENDROOT
BRANCH   1  11
ATOM     11  N   UNL     1      26.685   0.174  53.892  1.00  0.00    -0.133 NA
ATOM     12  N   UNL     1      27.460  -0.516  54.583  1.00  0.00    -0.072 NA
BRANCH  12  13
ATOM     13  N   UNL     1      28.783  -0.172  54.434  1.00  0.00    -0.285 N 
ATOM     14  C   UNL     1      29.155   1.232  54.308  1.00  0.00    +0.169 C 
ATOM     15  C   UNL     1      29.541  -1.120  53.638  1.00  0.00    +0.169 C 
ENDBRANCH  12  13
ENDBRANCH   1  11
BRANCH   8  16
ATOM     16  C   UNL     1      21.999   0.969  51.413  1.00  0.00    +0.355 C 
ATOM     17  O   UNL     1      22.473   2.088  51.328  1.00  0.00    -0.245 OA
BRANCH  16  18
ATOM     18  O   UNL     1      21.511   0.366  50.307  1.00  0.00    -0.476 OA
ATOM     19  H   UNL     1      21.541   1.056  49.615  1.00  0.00    +0.297 HD
ENDBRANCH  16  18
ENDBRANCH   8  16
TORSDOF 4
ENDMDL
MODEL 5
REMARK VINA RESULT:    -6.362      3.024      5.008
REMARK INTER + INTRA:          -7.775
REMARK INTER:                  -7.405
REMARK INTRA:                  -0.370
REMARK UNBOUND:                -0.111
REMARK SMILES CN(C)/N=N/c1ccc2ncnc(C(=O)O)c2c1
REMARK SMILES IDX 6 1 7 2 8 3 9 4 10 5 11 6 12 7 13 8 17 9 18 10 5 11 4 12
REMARK SMILES IDX 2 13 1 14 3 15 14 16 15 17 16 18
REMARK H PARENT 16 19
ROOT
ATOM      1  C   UNL     1      23.667   1.553  51.644  1.00  0.00    +0.088 A 
ATOM      2  C   UNL     1      22.378   1.054  51.795  1.00  0.00    +0.032 A 
ATOM      3  C   UNL     1      22.094   0.147  52.820  1.00  0.00    +0.031 A 
ATOM      4  C   UNL     1      23.068  -0.292  53.705  1.00  0.00    +0.075 A 
ATOM      5  N   UNL     1      22.696  -1.156  54.654  1.00  0.00    -0.236 NA
ATOM      6  C   UNL     1      23.634  -1.578  55.506  1.00  0.00    +0.223 A 
ATOM      7  N   UNL     1      24.913  -1.216  55.493  1.00  0.00    -0.229 NA
ATOM      8  C   UNL     1      25.273  -0.338  54.522  1.00  0.00    +0.159 A 
ATOM      9  C   UNL     1      24.379   0.184  53.567  1.00  0.00    +0.036 A 
ATOM     10  C   UNL     1      24.662   1.111  52.520  1.00  0.00    +0.043 A 
ENDROOT
BRANCH   1  11
ATOM     11  N   UNL     1      23.984   2.445  50.608  1.00  0.00    -0.133 NA
ATOM     12  N   UNL     1      24.931   3.177  50.956  1.00  0.00    -0.072 NA
BRANCH  12  13
ATOM     13  N   UNL     1      25.302   4.087  49.995  1.00  0.00    -0.285 N 
ATOM     14  C   UNL     1      24.300   4.627  49.084  1.00  0.00    +0.169 C 
ATOM     15  C   UNL     1      26.619   3.835  49.438  1.00  0.00    +0.169 C 
ENDBRANCH  12  13
ENDBRANCH   1  11
BRANCH   8  16
ATOM     16  C   UNL     1      26.730   0.041  54.534  1.00  0.00    +0.355 C 
ATOM     17  O   UNL     1      27.234   1.055  54.981  1.00  0.00    -0.245 OA
BRANCH  16  18
ATOM     18  O   UNL     1      27.517  -0.900  53.968  1.00  0.00    -0.476 OA
ATOM     19  H   UNL     1      27.545  -1.626  54.622  1.00  0.00    +0.297 HD
ENDBRANCH  16  18
ENDBRANCH   8  16
TORSDOF 4
ENDMDL
MODEL 6
REMARK VINA RESULT:    -6.289      2.779      3.403
REMARK INTER + INTRA:          -7.687
REMARK INTER:                  -7.368
REMARK INTRA:                  -0.319
REMARK UNBOUND:                -0.111
REMARK SMILES CN(C)/N=N/c1ccc2ncnc(C(=O)O)c2c1
REMARK SMILES IDX 6 1 7 2 8 3 9 4 10 5 11 6 12 7 13 8 17 9 18 10 5 11 4 12
REMARK SMILES IDX 2 13 1 14 3 15 14 16 15 17 16 18
REMARK H PARENT 16 19
ROOT
ATOM      1  C   UNL     1      23.979  -0.011  53.199  1.00  0.00    +0.088 A 
ATOM      2  C   UNL     1      24.550  -0.620  54.312  1.00  0.00    +0.032 A 
ATOM      3  C   UNL     1      25.856  -0.301  54.692  1.00  0.00    +0.031 A 
ATOM      4  C   UNL     1      26.627   0.610  53.983  1.00  0.00    +0.075 A 
ATOM      5  N   UNL     1      27.864   0.850  54.428  1.00  0.00    -0.236 NA
ATOM      6  C   UNL     1      28.605   1.727  53.746  1.00  0.00    +0.223 A 
ATOM      7  N   UNL     1      28.222   2.383  52.655  1.00  0.00    -0.229 NA
ATOM      8  C   UNL     1      26.963   2.126  52.216  1.00  0.00    +0.159 A 
ATOM      9  C   UNL     1      26.082   1.227  52.849  1.00  0.00    +0.036 A 
ATOM     10  C   UNL     1      24.748   0.899  52.468  1.00  0.00    +0.043 A 
ENDROOT
BRANCH   1  11
ATOM     11  N   UNL     1      22.679  -0.333  52.782  1.00  0.00    -0.133 NA
ATOM     12  N   UNL     1      21.901   0.598  53.070  1.00  0.00    -0.072 NA
BRANCH  12  13
ATOM     13  N   UNL     1      20.599   0.360  52.699  1.00  0.00    -0.285 N 
ATOM     14  C   UNL     1      19.795   1.442  52.145  1.00  0.00    +0.169 C 
ATOM     15  C   UNL     1      19.914  -0.583  53.565  1.00  0.00    +0.169 C 
ENDBRANCH  12  13
ENDBRANCH   1  11
BRANCH   8  16
ATOM     16  C   UNL     1      26.570   2.880  50.975  1.00  0.00    +0.355 C 
ATOM     17  O   UNL     1      26.863   2.623  49.821  1.00  0.00    -0.245 OA
BRANCH  16  18
ATOM     18  O   UNL     1      25.802   3.959  51.243  1.00  0.00    -0.476 OA
ATOM     19  H   UNL     1      25.868   4.516  50.442  1.00  0.00    +0.297 HD
ENDBRANCH  16  18
ENDBRANCH   8  16
TORSDOF 4
ENDMDL
MODEL 7
REMARK VINA RESULT:    -6.280      2.269      2.663
REMARK INTER + INTRA:          -7.676
REMARK INTER:                  -7.595
REMARK INTRA:                  -0.081
REMARK UNBOUND:                -0.111
REMARK SMILES CN(C)/N=N/c1ccc2ncnc(C(=O)O)c2c1
REMARK SMILES IDX 6 1 7 2 8 3 9 4 10 5 11 6 12 7 13 8 17 9 18 10 5 11 4 12
REMARK SMILES IDX 2 13 1 14 3 15 14 16 15 17 16 18
REMARK H PARENT 16 19
ROOT
ATOM      1  C   UNL     1      24.356   1.446  52.043  1.00  0.00    +0.088 A 
ATOM      2  C   UNL     1      25.088   2.263  51.189  1.00  0.00    +0.032 A 
ATOM      3  C   UNL     1      26.435   2.527  51.455  1.00  0.00    +0.031 A 
ATOM      4  C   UNL     1      27.082   2.004  52.565  1.00  0.00    +0.075 A 
ATOM      5  N   UNL     1      28.372   2.311  52.730  1.00  0.00    -0.236 NA
ATOM      6  C   UNL     1      28.994   1.807  53.799  1.00  0.00    +0.223 A 
ATOM      7  N   UNL     1      28.441   1.025  54.721  1.00  0.00    -0.229 NA
ATOM      8  C   UNL     1      27.130   0.724  54.538  1.00  0.00    +0.159 A 
ATOM      9  C   UNL     1      26.364   1.189  53.451  1.00  0.00    +0.036 A 
ATOM     10  C   UNL     1      24.991   0.922  53.173  1.00  0.00    +0.043 A 
ENDROOT
BRANCH   1  11
ATOM     11  N   UNL     1      22.997   1.186  51.812  1.00  0.00    -0.133 NA
ATOM     12  N   UNL     1      22.358   1.300  52.876  1.00  0.00    -0.072 NA
BRANCH  12  13
ATOM     13  N   UNL     1      21.012   1.057  52.737  1.00  0.00    -0.285 N 
ATOM     14  C   UNL     1      20.460  -0.222  53.166  1.00  0.00    +0.169 C 
ATOM     15  C   UNL     1      20.440   1.643  51.538  1.00  0.00    +0.169 C 
ENDBRANCH  12  13
ENDBRANCH   1  11
BRANCH   8  16
ATOM     16  C   UNL     1      26.538  -0.155  55.607  1.00  0.00    +0.355 C 
ATOM     17  O   UNL     1      25.631  -0.960  55.494  1.00  0.00    -0.245 OA
BRANCH  16  18
ATOM     18  O   UNL     1      27.129   0.018  56.809  1.00  0.00    -0.476 OA
ATOM     19  H   UNL     1      28.071   0.180  56.602  1.00  0.00    +0.297 HD
ENDBRANCH  16  18
ENDBRANCH   8  16
TORSDOF 4
ENDMDL
MODEL 8
REMARK VINA RESULT:    -6.091      3.294      7.011
REMARK INTER + INTRA:          -7.448
REMARK INTER:                  -7.079
REMARK INTRA:                  -0.369
REMARK UNBOUND:                -0.111
REMARK SMILES CN(C)/N=N/c1ccc2ncnc(C(=O)O)c2c1
REMARK SMILES IDX 6 1 7 2 8 3 9 4 10 5 11 6 12 7 13 8 17 9 18 10 5 11 4 12
REMARK SMILES IDX 2 13 1 14 3 15 14 16 15 17 16 18
REMARK H PARENT 16 19
ROOT
ATOM      1  C   UNL     1      23.495  -0.505  53.830  1.00  0.00    +0.088 A 
ATOM      2  C   UNL     1      22.761  -1.158  54.814  1.00  0.00    +0.032 A 
ATOM      3  C   UNL     1      21.375  -1.287  54.686  1.00  0.00    +0.031 A 
ATOM      4  C   UNL     1      20.686  -0.770  53.597  1.00  0.00    +0.075 A 
ATOM      5  N   UNL     1      19.363  -0.948  53.563  1.00  0.00    -0.236 NA
ATOM      6  C   UNL     1      18.700  -0.451  52.516  1.00  0.00    +0.223 A 
ATOM      7  N   UNL     1      19.242   0.213  51.500  1.00  0.00    -0.229 NA
ATOM      8  C   UNL     1      20.588   0.386  51.551  1.00  0.00    +0.159 A 
ATOM      9  C   UNL     1      21.399  -0.094  52.598  1.00  0.00    +0.036 A 
ATOM     10  C   UNL     1      22.813   0.032  52.734  1.00  0.00    +0.043 A 
ENDROOT
BRANCH   1  11
ATOM     11  N   UNL     1      24.883  -0.341  53.948  1.00  0.00    -0.133 NA
ATOM     12  N   UNL     1      25.315   0.315  52.979  1.00  0.00    -0.072 NA
BRANCH  12  13
ATOM     13  N   UNL     1      26.674   0.518  53.016  1.00  0.00    -0.285 N 
ATOM     14  C   UNL     1      27.239   1.742  52.463  1.00  0.00    +0.169 C 
ATOM     15  C   UNL     1      27.445  -0.698  52.827  1.00  0.00    +0.169 C 
ENDBRANCH  12  13
ENDBRANCH   1  11
BRANCH   8  16
ATOM     16  C   UNL     1      21.162   1.149  50.388  1.00  0.00    +0.355 C 
ATOM     17  O   UNL     1      21.494   0.715  49.300  1.00  0.00    -0.245 OA
BRANCH  16  18
ATOM     18  O   UNL     1      21.300   2.468  50.649  1.00  0.00    -0.476 OA
ATOM     19  H   UNL     1      21.106   2.910  49.799  1.00  0.00    +0.297 HD
ENDBRANCH  16  18
ENDBRANCH   8  16
TORSDOF 4
ENDMDL
MODEL 9
REMARK VINA RESULT:    -6.003      3.448      6.647
REMARK INTER + INTRA:          -7.342
REMARK INTER:                  -6.981
REMARK INTRA:                  -0.362
REMARK UNBOUND:                -0.111
REMARK SMILES CN(C)/N=N/c1ccc2ncnc(C(=O)O)c2c1
REMARK SMILES IDX 6 1 7 2 8 3 9 4 10 5 11 6 12 7 13 8 17 9 18 10 5 11 4 12
REMARK SMILES IDX 2 13 1 14 3 15 14 16 15 17 16 18
REMARK H PARENT 16 19
ROOT
ATOM      1  C   UNL     1      24.981   0.138  53.088  1.00  0.00    +0.088 A 
ATOM      2  C   UNL     1      24.010  -0.725  53.586  1.00  0.00    +0.032 A 
ATOM      3  C   UNL     1      22.665  -0.345  53.580  1.00  0.00    +0.031 A 
ATOM      4  C   UNL     1      22.252   0.888  53.096  1.00  0.00    +0.075 A 
ATOM      5  N   UNL     1      20.943   1.157  53.130  1.00  0.00    -0.236 NA
ATOM      6  C   UNL     1      20.546   2.344  52.664  1.00  0.00    +0.223 A 
ATOM      7  N   UNL     1      21.340   3.289  52.170  1.00  0.00    -0.229 NA
ATOM      8  C   UNL     1      22.666   2.999  52.145  1.00  0.00    +0.159 A 
ATOM      9  C   UNL     1      23.211   1.783  52.602  1.00  0.00    +0.036 A 
ATOM     10  C   UNL     1      24.581   1.388  52.609  1.00  0.00    +0.043 A 
ENDROOT
BRANCH   1  11
ATOM     11  N   UNL     1      26.340  -0.211  53.106  1.00  0.00    -0.133 NA
ATOM     12  N   UNL     1      26.905   0.344  54.069  1.00  0.00    -0.072 NA
BRANCH  12  13
ATOM     13  N   UNL     1      28.247   0.057  54.157  1.00  0.00    -0.285 N 
ATOM     14  C   UNL     1      29.215   1.142  54.249  1.00  0.00    +0.169 C 
ATOM     15  C   UNL     1      28.642  -1.103  53.377  1.00  0.00    +0.169 C 
ENDBRANCH  12  13
ENDBRANCH   1  11
BRANCH   8  16
ATOM     16  C   UNL     1      23.533   4.097  51.588  1.00  0.00    +0.355 C 
ATOM     17  O   UNL     1      23.843   4.286  50.426  1.00  0.00    -0.245 OA
BRANCH  16  18
ATOM     18  O   UNL     1      23.987   4.935  52.544  1.00  0.00    -0.476 OA
ATOM     19  H   UNL     1      24.958   4.821  52.533  1.00  0.00    +0.297 HD
ENDBRANCH  16  18
ENDBRANCH   8  16
TORSDOF 4
ENDMDL
