REMARK SMILES C[N+](C)(C)C[C@H](O)COc1c(F)cc(Br)cc1F
REMARK SMILES IDX 6 1 5 2 2 3 1 4 3 5 4 6 7 7 8 9 9 10 10 11 11 12 17 13 13 14
REMARK SMILES IDX 16 15 14 16 12 17 18 18 15 19
REMARK H PARENT 7 8
ROOT
ATOM      1  C   UNL     1      -0.504  -0.226   1.625  1.00  0.00    +0.206 C 
ENDROOT
BRANCH   1   2
ATOM      2  C   UNL     1      -1.908  -0.817   1.361  1.00  0.00    +0.299 C 
BRANCH   2   3
ATOM      3  N   UNL     1      -2.831  -0.119   0.324  1.00  0.00    -0.329 N 
ATOM      4  C   UNL     1      -2.466  -0.469  -1.110  1.00  0.00    +0.334 C 
ATOM      5  C   UNL     1      -2.852   1.397   0.500  1.00  0.00    +0.334 C 
ATOM      6  C   UNL     1      -4.258  -0.632   0.575  1.00  0.00    +0.334 C 
ENDBRANCH   2   3
ENDBRANCH   1   2
BRANCH   1   7
ATOM      7  O   UNL     1      -0.608   1.106   2.146  1.00  0.00    -0.384 OA
ATOM      8  H   UNL     1       0.302   1.380   2.388  1.00  0.00    +0.211 HD
ENDBRANCH   1   7
BRANCH   1   9
ATOM      9  C   UNL     1       0.460  -0.246   0.438  1.00  0.00    +0.267 C 
BRANCH   9  10
ATOM     10  O   UNL     1       1.767   0.026   0.951  1.00  0.00    -0.485 OA
BRANCH  10  11
ATOM     11  C   UNL     1       2.804   0.055   0.057  1.00  0.00    +0.190 A 
ATOM     12  C   UNL     1       2.730  -0.152  -1.323  1.00  0.00    +0.169 A 
ATOM     13  C   UNL     1       4.061   0.324   0.609  1.00  0.00    +0.169 A 
ATOM     14  C   UNL     1       3.870  -0.095  -2.126  1.00  0.00    +0.059 A 
ATOM     15  C   UNL     1       5.211   0.385  -0.174  1.00  0.00    +0.059 A 
ATOM     16  C   UNL     1       5.107   0.173  -1.545  1.00  0.00    +0.024 A 
ATOM     17  F   UNL     1       1.559  -0.410  -1.925  1.00  0.00    -0.203 F 
ATOM     18  F   UNL     1       4.174   0.532   1.930  1.00  0.00    -0.203 F 
ATOM     19 Br   UNL     1       6.653   0.251  -2.627  1.00  0.00    -0.051 Br
ENDBRANCH  10  11
ENDBRANCH   9  10
ENDBRANCH   1   9
TORSDOF 6
