REMARK SMILES N#CC(=Cc1cccc(Br)c1)C(N)=C(N)C(C#N)=C(C#N)C#N
REMARK SMILES IDX 1 1 2 2 3 3 4 4 12 5 14 6 13 7 15 10 16 13 17 14 19 15 18 16
REMARK SMILES IDX 20 17 22 18 21 19 23 20 5 21 6 22 11 23 7 24 9 25 8 26 10 27
REMARK H PARENT 13 8 13 9 15 11 15 12
ROOT
ATOM      1  N   UNL     1      -0.344  -1.487  -2.167  1.00  0.00    -0.192 NA
ATOM      2  C   UNL     1      -0.172  -1.241  -1.047  1.00  0.00    +0.101 C 
ATOM      3  C   UNL     1      -0.022  -0.904   0.334  1.00  0.00    +0.078 C 
ATOM      4  C   UNL     1       1.052  -0.230   0.795  1.00  0.00    +0.029 C 
ENDROOT
BRANCH   3   5
ATOM      5  C   UNL     1      -1.094  -1.285   1.267  1.00  0.00    +0.074 C 
ATOM      6  C   UNL     1      -2.402  -0.911   1.136  1.00  0.00    +0.076 C 
BRANCH   5   7
ATOM      7  N   UNL     1      -0.709  -2.068   2.362  1.00  0.00    -0.396 N 
ATOM      8  H   UNL     1      -1.458  -2.713   2.622  1.00  0.00    +0.156 HD
ATOM      9  H   UNL     1       0.148  -2.592   2.189  1.00  0.00    +0.156 HD
ENDBRANCH   5   7
BRANCH   6  10
ATOM     10  N   UNL     1      -3.318  -1.252   2.133  1.00  0.00    -0.396 N 
ATOM     11  H   UNL     1      -2.856  -1.338   3.042  1.00  0.00    +0.156 HD
ATOM     12  H   UNL     1      -4.129  -0.641   2.203  1.00  0.00    +0.156 HD
ENDBRANCH   6  10
BRANCH   6  13
ATOM     13  C   UNL     1      -2.935  -0.120   0.014  1.00  0.00    +0.106 C 
ATOM     14  C   UNL     1      -3.778  -0.841  -0.896  1.00  0.00    +0.104 C 
ATOM     15  C   UNL     1      -2.710   1.203  -0.153  1.00  0.00    +0.149 C 
ATOM     16  N   UNL     1      -4.485  -1.400  -1.624  1.00  0.00    -0.192 NA
ATOM     17  C   UNL     1      -1.919   1.943   0.771  1.00  0.00    +0.112 C 
ATOM     18  C   UNL     1      -3.274   1.928  -1.242  1.00  0.00    +0.112 C 
ATOM     19  N   UNL     1      -1.262   2.527   1.528  1.00  0.00    -0.192 NA
ATOM     20  N   UNL     1      -3.739   2.534  -2.115  1.00  0.00    -0.192 NA
ENDBRANCH   6  13
ENDBRANCH   3   5
BRANCH   4  21
ATOM     21  C   UNL     1       2.180   0.261  -0.006  1.00  0.00    -0.023 A 
ATOM     22  C   UNL     1       2.439   1.637  -0.032  1.00  0.00    +0.008 A 
ATOM     23  C   UNL     1       3.017  -0.610  -0.713  1.00  0.00    +0.023 A 
ATOM     24  C   UNL     1       3.510   2.141  -0.774  1.00  0.00    +0.002 A 
ATOM     25  C   UNL     1       4.085  -0.099  -1.451  1.00  0.00    +0.018 A 
ATOM     26  C   UNL     1       4.334   1.272  -1.488  1.00  0.00    +0.016 A 
ATOM     27 Br   UNL     1       5.212  -1.280  -2.407  1.00  0.00    -0.051 Br
ENDBRANCH   4  21
TORSDOF 5
