REMARK SMILES CCN1CCN(c2cc(C(=O)O)cc(O)c2O)CC1
REMARK SMILES IDX 7 1 8 2 9 3 13 4 14 5 16 6 6 7 3 8 4 9 19 10 5 11 18 12 2 13
REMARK SMILES IDX 1 14 17 15 10 17 11 18 12 19 15 21
REMARK H PARENT 17 16 12 20 15 22
ROOT
ATOM      1  C   UNL     1      -1.342  -0.262  -0.154  1.00  0.00    +0.084 A 
ATOM      2  C   UNL     1      -2.000   0.649   0.697  1.00  0.00    +0.045 A 
ATOM      3  C   UNL     1      -3.402   0.704   0.814  1.00  0.00    +0.065 A 
ATOM      4  C   UNL     1      -4.203  -0.165   0.073  1.00  0.00    +0.066 A 
ATOM      5  C   UNL     1      -3.583  -1.073  -0.770  1.00  0.00    +0.160 A 
ATOM      6  C   UNL     1      -2.184  -1.124  -0.883  1.00  0.00    +0.181 A 
ENDROOT
BRANCH   1   7
ATOM      7  N   UNL     1       0.045  -0.277  -0.217  1.00  0.00    -0.366 N 
ATOM      8  N   UNL     1       3.033  -0.238  -0.589  1.00  0.00    -0.300 NA
ATOM      9  C   UNL     1       2.158   0.942  -0.761  1.00  0.00    +0.106 C 
ATOM     10  C   UNL     1       2.239  -1.424  -0.190  1.00  0.00    +0.106 C 
ATOM     11  C   UNL     1       0.838   0.934   0.050  1.00  0.00    +0.132 C 
ATOM     12  C   UNL     1       0.789  -1.438  -0.731  1.00  0.00    +0.132 C 
BRANCH   8  13
ATOM     13  C   UNL     1       4.131  -0.017   0.359  1.00  0.00    +0.081 C 
ATOM     14  C   UNL     1       5.226   0.870  -0.223  1.00  0.00    +0.021 C 
ENDBRANCH   8  13
ENDBRANCH   1   7
BRANCH   6  15
ATOM     15  O   UNL     1      -1.682  -2.043  -1.776  1.00  0.00    -0.503 OA
ATOM     16  H   UNL     1      -2.472  -2.477  -2.155  1.00  0.00    +0.293 HD
ENDBRANCH   6  15
BRANCH   3  17
ATOM     17  C   UNL     1      -3.985   1.703   1.742  1.00  0.00    +0.335 C 
ATOM     18  O   UNL     1      -3.365   2.507   2.412  1.00  0.00    -0.246 OA
BRANCH  17  19
ATOM     19  O   UNL     1      -5.329   1.648   1.787  1.00  0.00    -0.478 OA
ATOM     20  H   UNL     1      -5.567   2.350   2.429  1.00  0.00    +0.297 HD
ENDBRANCH  17  19
ENDBRANCH   3  17
BRANCH   5  21
ATOM     21  O   UNL     1      -4.310  -1.951  -1.533  1.00  0.00    -0.504 OA
ATOM     22  H   UNL     1      -5.255  -1.804  -1.354  1.00  0.00    +0.293 HD
ENDBRANCH   5  21
TORSDOF 6
