REMARK SMILES CN(C)/N=N/c1ccc2ncnc(-c3ccc(O)c([N+](=O)[O-])c3)c2c1
REMARK SMILES IDX 6 1 7 2 8 3 9 4 10 5 11 6 12 7 13 8 24 9 25 10 5 11 4 12
REMARK SMILES IDX 2 13 1 14 3 15 14 16 15 17 23 18 16 19 19 20 17 21 20 22
REMARK SMILES IDX 21 23 22 24 18 25
REMARK H PARENT 18 26
ROOT
ATOM      1  C   UNL     1       2.021   0.513  -1.067  1.00  0.00    +0.088 A 
ATOM      2  C   UNL     1       2.393   1.447  -2.029  1.00  0.00    +0.032 A 
ATOM      3  C   UNL     1       1.417   2.132  -2.761  1.00  0.00    +0.031 A 
ATOM      4  C   UNL     1       0.060   1.902  -2.571  1.00  0.00    +0.074 A 
ATOM      5  N   UNL     1      -0.812   2.605  -3.299  1.00  0.00    -0.236 NA
ATOM      6  C   UNL     1      -2.112   2.370  -3.084  1.00  0.00    +0.223 A 
ATOM      7  N   UNL     1      -2.618   1.489  -2.217  1.00  0.00    -0.236 NA
ATOM      8  C   UNL     1      -1.723   0.772  -1.503  1.00  0.00    +0.082 A 
ATOM      9  C   UNL     1      -0.333   0.946  -1.624  1.00  0.00    +0.029 A 
ATOM     10  C   UNL     1       0.660   0.260  -0.874  1.00  0.00    +0.043 A 
ENDROOT
BRANCH   1  11
ATOM     11  N   UNL     1       3.007  -0.184  -0.351  1.00  0.00    -0.133 NA
ATOM     12  N   UNL     1       2.972   0.138   0.853  1.00  0.00    -0.072 NA
BRANCH  12  13
ATOM     13  N   UNL     1       3.894  -0.524   1.627  1.00  0.00    -0.285 N 
ATOM     14  C   UNL     1       5.127  -1.017   1.026  1.00  0.00    +0.169 C 
ATOM     15  C   UNL     1       3.989  -0.009   2.982  1.00  0.00    +0.169 C 
ENDBRANCH  12  13
ENDBRANCH   1  11
BRANCH   8  16
ATOM     16  C   UNL     1      -2.353  -0.197  -0.591  1.00  0.00    +0.008 A 
ATOM     17  C   UNL     1      -2.167  -1.581  -0.750  1.00  0.00    +0.015 A 
ATOM     18  C   UNL     1      -3.194   0.246   0.445  1.00  0.00    +0.100 A 
ATOM     19  C   UNL     1      -2.781  -2.496   0.110  1.00  0.00    +0.054 A 
ATOM     20  C   UNL     1      -3.813  -0.674   1.308  1.00  0.00    +0.311 A 
ATOM     21  C   UNL     1      -3.604  -2.048   1.141  1.00  0.00    +0.194 A 
BRANCH  20  22
ATOM     22  N   UNL     1      -4.673  -0.167   2.379  1.00  0.00    +0.066 N 
ATOM     23  O   UNL     1      -5.263  -1.004   3.083  1.00  0.00    -0.258 OA
ATOM     24  O   UNL     1      -4.761   1.060   2.530  1.00  0.00    -0.258 OA
ENDBRANCH  20  22
BRANCH  21  25
ATOM     25  O   UNL     1      -4.151  -3.033   1.917  1.00  0.00    -0.502 OA
ATOM     26  H   UNL     1      -4.745  -2.638   2.590  1.00  0.00    +0.293 HD
ENDBRANCH  21  25
ENDBRANCH   8  16
TORSDOF 5
