REMARK SMILES CCN(CC/N=N/Nc1ccc2ncnc(-c3cccc(Cl)c3)c2c1)c1ccccn1
REMARK SMILES IDX 6 1 7 2 5 3 4 4 3 5 2 6 1 7 26 8 27 9 31 10 28 11 30 12
REMARK SMILES IDX 29 13 8 14 9 16 10 17 25 18 11 19 24 20 12 21 16 22 13 23
REMARK SMILES IDX 15 24 14 25 17 26 18 27 23 28 19 29 21 30 20 31 22 32
REMARK H PARENT 8 15
ROOT
ATOM      1  N   UNL     1      -1.193  -0.502   0.983  1.00  0.00    -0.169 NA
ATOM      2  N   UNL     1      -0.529   0.550   0.972  1.00  0.00    -0.075 NA
ENDROOT
BRANCH   1   3
ATOM      3  C   UNL     1      -2.643  -0.241   0.930  1.00  0.00    +0.190 C 
BRANCH   3   4
ATOM      4  C   UNL     1      -3.103  -0.200  -0.534  1.00  0.00    +0.143 C 
BRANCH   4   5
ATOM      5  N   UNL     1      -4.546   0.078  -0.696  1.00  0.00    -0.355 N 
BRANCH   5   6
ATOM      6  C   UNL     1      -4.963   1.447  -0.347  1.00  0.00    +0.114 C 
ATOM      7  C   UNL     1      -6.170   1.879  -1.169  1.00  0.00    +0.027 C 
ENDBRANCH   5   6
BRANCH   5   8
ATOM      8  C   UNL     1      -5.374  -0.940  -0.190  1.00  0.00    +0.128 A 
ATOM      9  C   UNL     1      -5.311  -2.220  -0.746  1.00  0.00    +0.047 A 
ATOM     10  N   UNL     1      -6.223  -0.673   0.826  1.00  0.00    -0.239 NA
ATOM     11  C   UNL     1      -6.120  -3.240  -0.246  1.00  0.00    +0.005 A 
ATOM     12  C   UNL     1      -7.001  -1.673   1.297  1.00  0.00    +0.113 A 
ATOM     13  C   UNL     1      -6.984  -2.963   0.802  1.00  0.00    +0.020 A 
ENDBRANCH   5   8
ENDBRANCH   4   5
ENDBRANCH   3   4
ENDBRANCH   1   3
BRANCH   2  14
ATOM     14  N   UNL     1       0.759   0.169   1.037  1.00  0.00    -0.260 N 
ATOM     15  H   UNL     1       0.926  -0.812   0.843  1.00  0.00    +0.192 HD
BRANCH  14  16
ATOM     16  C   UNL     1       1.761   1.065   0.635  1.00  0.00    +0.059 A 
ATOM     17  C   UNL     1       1.540   2.436   0.503  1.00  0.00    +0.030 A 
ATOM     18  C   UNL     1       3.071   0.603   0.462  1.00  0.00    +0.040 A 
ATOM     19  C   UNL     1       2.584   3.300   0.152  1.00  0.00    +0.031 A 
ATOM     20  C   UNL     1       4.136   1.479   0.116  1.00  0.00    +0.029 A 
ATOM     21  C   UNL     1       3.877   2.844  -0.052  1.00  0.00    +0.074 A 
ATOM     22  C   UNL     1       5.476   1.105  -0.093  1.00  0.00    +0.082 A 
ATOM     23  N   UNL     1       4.820   3.728  -0.396  1.00  0.00    -0.236 NA
ATOM     24  N   UNL     1       6.439   1.981  -0.457  1.00  0.00    -0.236 NA
ATOM     25  C   UNL     1       6.057   3.253  -0.586  1.00  0.00    +0.223 A 
BRANCH  22  26
ATOM     26  C   UNL     1       5.968  -0.274   0.059  1.00  0.00    +0.002 A 
ATOM     27  C   UNL     1       6.421  -0.997  -1.057  1.00  0.00    +0.010 A 
ATOM     28  C   UNL     1       6.019  -0.892   1.320  1.00  0.00    +0.030 A 
ATOM     29  C   UNL     1       6.891  -2.306  -0.925  1.00  0.00    +0.002 A 
ATOM     30  C   UNL     1       6.489  -2.199   1.448  1.00  0.00    +0.041 A 
ATOM     31  C   UNL     1       6.921  -2.910   0.331  1.00  0.00    +0.020 A 
ATOM     32 Cl   UNL     1       6.530  -2.942   3.000  1.00  0.00    -0.084 Cl
ENDBRANCH  22  26
ENDBRANCH  14  16
ENDBRANCH   2  14
TORSDOF 8
