REMARK SMILES N#CC(=Cc1ccc(O)cc1)C(N)=C(C#N)C(N)=C(C#N)C#N
REMARK SMILES IDX 1 1 2 2 3 3 4 4 12 5 14 6 15 7 16 8 13 9 17 12 19 13 20 14
REMARK SMILES IDX 22 15 21 16 23 17 18 18 5 21 6 22 11 23 7 24 10 25 8 26 9 27
REMARK H PARENT 13 10 13 11 18 19 18 20 9 28
ROOT
ATOM      1  N   UNL     1       1.073  -3.141  -0.091  1.00  0.00    -0.192 NA
ATOM      2  C   UNL     1       0.665  -2.058  -0.166  1.00  0.00    +0.101 C 
ATOM      3  C   UNL     1       0.106  -0.745  -0.278  1.00  0.00    +0.077 C 
ATOM      4  C   UNL     1       0.829   0.381  -0.112  1.00  0.00    +0.029 C 
ENDROOT
BRANCH   3   5
ATOM      5  C   UNL     1      -1.326  -0.659  -0.601  1.00  0.00    +0.070 C 
ATOM      6  C   UNL     1      -2.258  -0.560   0.384  1.00  0.00    +0.101 C 
ATOM      7  C   UNL     1      -1.905  -0.579   1.773  1.00  0.00    +0.104 C 
ATOM      8  N   UNL     1      -1.635  -0.598   2.900  1.00  0.00    -0.192 NA
BRANCH   5   9
ATOM      9  N   UNL     1      -1.639  -0.642  -1.960  1.00  0.00    -0.397 N 
ATOM     10  H   UNL     1      -0.918  -1.055  -2.553  1.00  0.00    +0.156 HD
ATOM     11  H   UNL     1      -2.551  -1.052  -2.169  1.00  0.00    +0.156 HD
ENDBRANCH   5   9
BRANCH   6  12
ATOM     12  C   UNL     1      -3.693  -0.377   0.081  1.00  0.00    +0.081 C 
ATOM     13  C   UNL     1      -4.183   0.868  -0.168  1.00  0.00    +0.153 C 
ATOM     14  C   UNL     1      -5.554   1.056  -0.496  1.00  0.00    +0.113 C 
ATOM     15  C   UNL     1      -3.356   2.029  -0.121  1.00  0.00    +0.113 C 
ATOM     16  N   UNL     1      -6.681   1.175  -0.748  1.00  0.00    -0.192 NA
ATOM     17  N   UNL     1      -2.660   2.955  -0.066  1.00  0.00    -0.192 NA
BRANCH  12  18
ATOM     18  N   UNL     1      -4.435  -1.556   0.020  1.00  0.00    -0.396 N 
ATOM     19  H   UNL     1      -5.449  -1.456   0.102  1.00  0.00    +0.156 HD
ATOM     20  H   UNL     1      -4.089  -2.318   0.606  1.00  0.00    +0.156 HD
ENDBRANCH  12  18
ENDBRANCH   6  12
ENDBRANCH   3   5
BRANCH   4  21
ATOM     21  C   UNL     1       2.255   0.437   0.225  1.00  0.00    -0.024 A 
ATOM     22  C   UNL     1       3.153   1.008  -0.686  1.00  0.00    +0.012 A 
ATOM     23  C   UNL     1       2.730  -0.038   1.454  1.00  0.00    +0.012 A 
ATOM     24  C   UNL     1       4.515   1.087  -0.381  1.00  0.00    +0.047 A 
ATOM     25  C   UNL     1       4.090   0.041   1.758  1.00  0.00    +0.047 A 
ATOM     26  C   UNL     1       4.971   0.600   0.840  1.00  0.00    +0.115 A 
BRANCH  26  27
ATOM     27  O   UNL     1       6.290   0.657   1.179  1.00  0.00    -0.508 OA
ATOM     28  H   UNL     1       6.784   1.058   0.446  1.00  0.00    +0.293 HD
ENDBRANCH  26  27
ENDBRANCH   4  21
TORSDOF 6
