MODEL 1
REMARK VINA RESULT:    -8.383      0.000      0.000
REMARK INTER + INTRA:         -10.836
REMARK INTER:                 -10.098
REMARK INTRA:                  -0.738
REMARK UNBOUND:                -0.738
REMARK SMILES O=[N+]([O-])c1cc(-c2ccc(-c3ccccc3)[nH]2)ccc1O
REMARK SMILES IDX 4 1 5 2 6 3 18 4 19 5 20 6 2 7 1 8 3 9 21 10 7 12 8 13 17 14
REMARK SMILES IDX 9 15 10 16 11 18 12 19 16 20 13 21 15 22 14 23
REMARK H PARENT 21 11 17 17
ROOT
ATOM      1  C   UNL     1      24.168  -0.597  54.346  1.00  0.00    +0.311 A 
ATOM      2  C   UNL     1      24.249   0.257  53.232  1.00  0.00    +0.100 A 
ATOM      3  C   UNL     1      23.097   0.580  52.501  1.00  0.00    +0.005 A 
ATOM      4  C   UNL     1      21.870   0.031  52.898  1.00  0.00    +0.014 A 
ATOM      5  C   UNL     1      21.790  -0.818  54.007  1.00  0.00    +0.054 A 
ATOM      6  C   UNL     1      22.934  -1.134  54.736  1.00  0.00    +0.194 A 
ENDROOT
BRANCH   1   7
ATOM      7  N   UNL     1      25.393  -0.908  55.084  1.00  0.00    +0.066 N 
ATOM      8  O   UNL     1      26.460  -0.899  54.449  1.00  0.00    -0.258 OA
ATOM      9  O   UNL     1      25.302  -1.163  56.293  1.00  0.00    -0.258 OA
ENDBRANCH   1   7
BRANCH   6  10
ATOM     10  O   UNL     1      22.734  -1.971  55.799  1.00  0.00    -0.502 OA
ATOM     11  H   UNL     1      21.796  -2.254  55.830  1.00  0.00    +0.293 HD
ENDBRANCH   6  10
BRANCH   3  12
ATOM     12  C   UNL     1      23.187   1.470  51.341  1.00  0.00    +0.046 A 
ATOM     13  C   UNL     1      22.330   1.639  50.268  1.00  0.00    +0.029 A 
ATOM     14  N   UNL     1      24.250   2.321  51.122  1.00  0.00    -0.355 N 
ATOM     15  C   UNL     1      22.890   2.614  49.406  1.00  0.00    +0.029 A 
ATOM     16  C   UNL     1      24.086   3.038  49.957  1.00  0.00    +0.046 A 
ATOM     17  H   UNL     1      25.066   2.381  51.713  1.00  0.00    +0.167 HD
BRANCH  16  18
ATOM     18  C   UNL     1      25.067   4.010  49.474  1.00  0.00    -0.002 A 
ATOM     19  C   UNL     1      26.423   3.664  49.392  1.00  0.00    +0.010 A 
ATOM     20  C   UNL     1      24.678   5.298  49.082  1.00  0.00    +0.010 A 
ATOM     21  C   UNL     1      27.369   4.586  48.938  1.00  0.00    +0.001 A 
ATOM     22  C   UNL     1      25.625   6.221  48.625  1.00  0.00    +0.001 A 
ATOM     23  C   UNL     1      26.970   5.865  48.555  1.00  0.00    +0.000 A 
ENDBRANCH  16  18
ENDBRANCH   3  12
TORSDOF 4
ENDMDL
MODEL 2
REMARK VINA RESULT:    -8.276      3.496      6.601
REMARK INTER + INTRA:         -10.708
REMARK INTER:                  -9.975
REMARK INTRA:                  -0.733
REMARK UNBOUND:                -0.738
REMARK SMILES O=[N+]([O-])c1cc(-c2ccc(-c3ccccc3)[nH]2)ccc1O
REMARK SMILES IDX 4 1 5 2 6 3 18 4 19 5 20 6 2 7 1 8 3 9 21 10 7 12 8 13 17 14
REMARK SMILES IDX 9 15 10 16 11 18 12 19 16 20 13 21 15 22 14 23
REMARK H PARENT 21 11 17 17
ROOT
ATOM      1  C   UNL     1      26.858   0.348  54.162  1.00  0.00    +0.311 A 
ATOM      2  C   UNL     1      25.570  -0.152  54.419  1.00  0.00    +0.100 A 
ATOM      3  C   UNL     1      24.511   0.135  53.547  1.00  0.00    +0.005 A 
ATOM      4  C   UNL     1      24.761   0.935  52.422  1.00  0.00    +0.014 A 
ATOM      5  C   UNL     1      26.042   1.432  52.168  1.00  0.00    +0.054 A 
ATOM      6  C   UNL     1      27.095   1.142  53.032  1.00  0.00    +0.194 A 
ENDROOT
BRANCH   1   7
ATOM      7  N   UNL     1      27.938   0.025  55.096  1.00  0.00    +0.066 N 
ATOM      8  O   UNL     1      27.664   0.025  56.308  1.00  0.00    -0.258 OA
ATOM      9  O   UNL     1      29.058  -0.231  54.633  1.00  0.00    -0.258 OA
ENDBRANCH   1   7
BRANCH   6  10
ATOM     10  O   UNL     1      28.302   1.681  52.681  1.00  0.00    -0.502 OA
ATOM     11  H   UNL     1      28.465   2.501  53.193  1.00  0.00    +0.293 HD
ENDBRANCH   6  10
BRANCH   3  12
ATOM     12  C   UNL     1      23.171  -0.390  53.818  1.00  0.00    +0.046 A 
ATOM     13  C   UNL     1      22.719  -1.230  54.820  1.00  0.00    +0.029 A 
ATOM     14  N   UNL     1      22.077  -0.119  53.022  1.00  0.00    -0.355 N 
ATOM     15  C   UNL     1      21.334  -1.450  54.621  1.00  0.00    +0.029 A 
ATOM     16  C   UNL     1      20.944  -0.742  53.498  1.00  0.00    +0.046 A 
ATOM     17  H   UNL     1      22.108   0.429  52.175  1.00  0.00    +0.167 HD
BRANCH  16  18
ATOM     18  C   UNL     1      19.640  -0.633  52.843  1.00  0.00    -0.002 A 
ATOM     19  C   UNL     1      18.530  -1.310  53.365  1.00  0.00    +0.010 A 
ATOM     20  C   UNL     1      19.470   0.146  51.691  1.00  0.00    +0.010 A 
ATOM     21  C   UNL     1      17.280  -1.219  52.745  1.00  0.00    +0.001 A 
ATOM     22  C   UNL     1      18.220   0.240  51.071  1.00  0.00    +0.001 A 
ATOM     23  C   UNL     1      17.127  -0.444  51.597  1.00  0.00    +0.000 A 
ENDBRANCH  16  18
ENDBRANCH   3  12
TORSDOF 4
ENDMDL
MODEL 3
REMARK VINA RESULT:    -8.131      3.924      5.709
REMARK INTER + INTRA:         -10.533
REMARK INTER:                  -9.802
REMARK INTRA:                  -0.730
REMARK UNBOUND:                -0.738
REMARK SMILES O=[N+]([O-])c1cc(-c2ccc(-c3ccccc3)[nH]2)ccc1O
REMARK SMILES IDX 4 1 5 2 6 3 18 4 19 5 20 6 2 7 1 8 3 9 21 10 7 12 8 13 17 14
REMARK SMILES IDX 9 15 10 16 11 18 12 19 16 20 13 21 15 22 14 23
REMARK H PARENT 21 11 17 17
ROOT
ATOM      1  C   UNL     1      19.952  -0.119  52.573  1.00  0.00    +0.311 A 
ATOM      2  C   UNL     1      21.253   0.331  52.288  1.00  0.00    +0.100 A 
ATOM      3  C   UNL     1      22.347  -0.154  53.018  1.00  0.00    +0.005 A 
ATOM      4  C   UNL     1      22.116  -1.089  54.038  1.00  0.00    +0.014 A 
ATOM      5  C   UNL     1      20.822  -1.536  54.320  1.00  0.00    +0.054 A 
ATOM      6  C   UNL     1      19.736  -1.057  53.591  1.00  0.00    +0.194 A 
ENDROOT
BRANCH   1   7
ATOM      7  N   UNL     1      18.836   0.411  51.787  1.00  0.00    +0.066 N 
ATOM      8  O   UNL     1      18.731   1.646  51.707  1.00  0.00    -0.258 OA
ATOM      9  O   UNL     1      18.063  -0.393  51.249  1.00  0.00    -0.258 OA
ENDBRANCH   1   7
BRANCH   6  10
ATOM     10  O   UNL     1      18.520  -1.567  53.955  1.00  0.00    -0.502 OA
ATOM     11  H   UNL     1      18.205  -2.199  53.274  1.00  0.00    +0.293 HD
ENDBRANCH   6  10
BRANCH   3  12
ATOM     12  C   UNL     1      23.700   0.317  52.717  1.00  0.00    +0.046 A 
ATOM     13  C   UNL     1      24.131   1.407  51.981  1.00  0.00    +0.029 A 
ATOM     14  N   UNL     1      24.840  -0.336  53.139  1.00  0.00    -0.355 N 
ATOM     15  C   UNL     1      25.548   1.405  51.978  1.00  0.00    +0.029 A 
ATOM     16  C   UNL     1      25.977   0.315  52.713  1.00  0.00    +0.046 A 
ATOM     17  H   UNL     1      24.844  -1.203  53.655  1.00  0.00    +0.167 HD
BRANCH  16  18
ATOM     18  C   UNL     1      27.328  -0.163  53.010  1.00  0.00    -0.002 A 
ATOM     19  C   UNL     1      27.630  -1.528  52.917  1.00  0.00    +0.010 A 
ATOM     20  C   UNL     1      28.344   0.725  53.389  1.00  0.00    +0.010 A 
ATOM     21  C   UNL     1      28.915  -1.997  53.204  1.00  0.00    +0.001 A 
ATOM     22  C   UNL     1      29.631   0.257  53.674  1.00  0.00    +0.001 A 
ATOM     23  C   UNL     1      29.915  -1.104  53.583  1.00  0.00    +0.000 A 
ENDBRANCH  16  18
ENDBRANCH   3  12
TORSDOF 4
ENDMDL
MODEL 4
REMARK VINA RESULT:    -8.116      1.304      2.223
REMARK INTER + INTRA:         -10.515
REMARK INTER:                  -9.794
REMARK INTRA:                  -0.720
REMARK UNBOUND:                -0.738
REMARK SMILES O=[N+]([O-])c1cc(-c2ccc(-c3ccccc3)[nH]2)ccc1O
REMARK SMILES IDX 4 1 5 2 6 3 18 4 19 5 20 6 2 7 1 8 3 9 21 10 7 12 8 13 17 14
REMARK SMILES IDX 9 15 10 16 11 18 12 19 16 20 13 21 15 22 14 23
REMARK H PARENT 21 11 17 17
ROOT
ATOM      1  C   UNL     1      23.239  -0.401  54.205  1.00  0.00    +0.311 A 
ATOM      2  C   UNL     1      23.162   0.491  53.121  1.00  0.00    +0.100 A 
ATOM      3  C   UNL     1      24.329   0.952  52.497  1.00  0.00    +0.005 A 
ATOM      4  C   UNL     1      25.570   0.513  52.980  1.00  0.00    +0.014 A 
ATOM      5  C   UNL     1      25.646  -0.374  54.058  1.00  0.00    +0.054 A 
ATOM      6  C   UNL     1      24.486  -0.837  54.673  1.00  0.00    +0.194 A 
ENDROOT
BRANCH   1   7
ATOM      7  N   UNL     1      21.997  -0.861  54.828  1.00  0.00    +0.066 N 
ATOM      8  O   UNL     1      21.909  -2.069  55.104  1.00  0.00    -0.258 OA
ATOM      9  O   UNL     1      21.106  -0.028  55.045  1.00  0.00    -0.258 OA
ENDBRANCH   1   7
BRANCH   6  10
ATOM     10  O   UNL     1      24.683  -1.701  55.715  1.00  0.00    -0.502 OA
ATOM     11  H   UNL     1      24.496  -1.249  56.565  1.00  0.00    +0.293 HD
ENDBRANCH   6  10
BRANCH   3  12
ATOM     12  C   UNL     1      24.243   1.880  51.368  1.00  0.00    +0.046 A 
ATOM     13  C   UNL     1      23.249   2.057  50.422  1.00  0.00    +0.029 A 
ATOM     14  N   UNL     1      25.246   2.770  51.042  1.00  0.00    -0.355 N 
ATOM     15  C   UNL     1      23.665   3.076  49.529  1.00  0.00    +0.029 A 
ATOM     16  C   UNL     1      24.912   3.518  49.935  1.00  0.00    +0.046 A 
ATOM     17  H   UNL     1      26.130   2.836  51.524  1.00  0.00    +0.167 HD
BRANCH  16  18
ATOM     18  C   UNL     1      25.796   4.535  49.363  1.00  0.00    -0.002 A 
ATOM     19  C   UNL     1      27.130   4.225  49.067  1.00  0.00    +0.010 A 
ATOM     20  C   UNL     1      25.333   5.830  49.096  1.00  0.00    +0.010 A 
ATOM     21  C   UNL     1      27.985   5.189  48.526  1.00  0.00    +0.001 A 
ATOM     22  C   UNL     1      26.187   6.795  48.553  1.00  0.00    +0.001 A 
ATOM     23  C   UNL     1      27.513   6.474  48.270  1.00  0.00    +0.000 A 
ENDBRANCH  16  18
ENDBRANCH   3  12
TORSDOF 4
ENDMDL
MODEL 5
REMARK VINA RESULT:    -8.008      2.039      3.089
REMARK INTER + INTRA:         -10.385
REMARK INTER:                  -9.616
REMARK INTRA:                  -0.769
REMARK UNBOUND:                -0.738
REMARK SMILES O=[N+]([O-])c1cc(-c2ccc(-c3ccccc3)[nH]2)ccc1O
REMARK SMILES IDX 4 1 5 2 6 3 18 4 19 5 20 6 2 7 1 8 3 9 21 10 7 12 8 13 17 14
REMARK SMILES IDX 9 15 10 16 11 18 12 19 16 20 13 21 15 22 14 23
REMARK H PARENT 21 11 17 17
ROOT
ATOM      1  C   UNL     1      26.994   0.824  53.773  1.00  0.00    +0.311 A 
ATOM      2  C   UNL     1      26.842   1.752  52.727  1.00  0.00    +0.100 A 
ATOM      3  C   UNL     1      25.604   1.904  52.089  1.00  0.00    +0.005 A 
ATOM      4  C   UNL     1      24.526   1.110  52.508  1.00  0.00    +0.014 A 
ATOM      5  C   UNL     1      24.679   0.188  53.548  1.00  0.00    +0.054 A 
ATOM      6  C   UNL     1      25.908   0.042  54.186  1.00  0.00    +0.194 A 
ENDROOT
BRANCH   1   7
ATOM      7  N   UNL     1      28.303   0.696  54.415  1.00  0.00    +0.066 N 
ATOM      8  O   UNL     1      28.701  -0.451  54.678  1.00  0.00    -0.258 OA
ATOM      9  O   UNL     1      28.941   1.730  54.660  1.00  0.00    -0.258 OA
ENDBRANCH   1   7
BRANCH   6  10
ATOM     10  O   UNL     1      25.937  -0.889  55.188  1.00  0.00    -0.502 OA
ATOM     11  H   UNL     1      25.253  -1.573  55.030  1.00  0.00    +0.293 HD
ENDBRANCH   6  10
BRANCH   3  12
ATOM     12  C   UNL     1      25.451   2.872  51.001  1.00  0.00    +0.046 A 
ATOM     13  C   UNL     1      24.351   3.184  50.221  1.00  0.00    +0.029 A 
ATOM     14  N   UNL     1      26.484   3.661  50.539  1.00  0.00    -0.355 N 
ATOM     15  C   UNL     1      24.736   4.181  49.292  1.00  0.00    +0.029 A 
ATOM     16  C   UNL     1      26.071   4.475  49.508  1.00  0.00    +0.046 A 
ATOM     17  H   UNL     1      27.433   3.617  50.880  1.00  0.00    +0.167 HD
BRANCH  16  18
ATOM     18  C   UNL     1      26.964   5.410  48.823  1.00  0.00    -0.002 A 
ATOM     19  C   UNL     1      26.481   6.645  48.369  1.00  0.00    +0.010 A 
ATOM     20  C   UNL     1      28.314   5.098  48.610  1.00  0.00    +0.010 A 
ATOM     21  C   UNL     1      27.324   7.543  47.709  1.00  0.00    +0.001 A 
ATOM     22  C   UNL     1      29.159   5.998  47.951  1.00  0.00    +0.001 A 
ATOM     23  C   UNL     1      28.663   7.218  47.500  1.00  0.00    +0.000 A 
ENDBRANCH  16  18
ENDBRANCH   3  12
TORSDOF 4
ENDMDL
MODEL 6
REMARK VINA RESULT:    -7.636      4.454      6.746
REMARK INTER + INTRA:          -9.936
REMARK INTER:                  -9.205
REMARK INTRA:                  -0.731
REMARK UNBOUND:                -0.738
REMARK SMILES O=[N+]([O-])c1cc(-c2ccc(-c3ccccc3)[nH]2)ccc1O
REMARK SMILES IDX 4 1 5 2 6 3 18 4 19 5 20 6 2 7 1 8 3 9 21 10 7 12 8 13 17 14
REMARK SMILES IDX 9 15 10 16 11 18 12 19 16 20 13 21 15 22 14 23
REMARK H PARENT 21 11 17 17
ROOT
ATOM      1  C   UNL     1      21.319   4.071  51.726  1.00  0.00    +0.311 A 
ATOM      2  C   UNL     1      21.886   2.828  52.060  1.00  0.00    +0.100 A 
ATOM      3  C   UNL     1      23.235   2.741  52.432  1.00  0.00    +0.005 A 
ATOM      4  C   UNL     1      24.005   3.913  52.456  1.00  0.00    +0.014 A 
ATOM      5  C   UNL     1      23.440   5.148  52.124  1.00  0.00    +0.054 A 
ATOM      6  C   UNL     1      22.099   5.234  51.760  1.00  0.00    +0.194 A 
ENDROOT
BRANCH   1   7
ATOM      7  N   UNL     1      19.907   4.120  51.345  1.00  0.00    +0.066 N 
ATOM      8  O   UNL     1      19.098   3.514  52.068  1.00  0.00    -0.258 OA
ATOM      9  O   UNL     1      19.594   4.758  50.330  1.00  0.00    -0.258 OA
ENDBRANCH   1   7
BRANCH   6  10
ATOM     10  O   UNL     1      21.657   6.493  51.459  1.00  0.00    -0.502 OA
ATOM     11  H   UNL     1      22.400   7.036  51.118  1.00  0.00    +0.293 HD
ENDBRANCH   6  10
BRANCH   3  12
ATOM     12  C   UNL     1      23.820   1.445  52.780  1.00  0.00    +0.046 A 
ATOM     13  C   UNL     1      23.220   0.266  53.187  1.00  0.00    +0.029 A 
ATOM     14  N   UNL     1      25.178   1.203  52.779  1.00  0.00    -0.355 N 
ATOM     15  C   UNL     1      24.238  -0.691  53.418  1.00  0.00    +0.029 A 
ATOM     16  C   UNL     1      25.457  -0.094  53.151  1.00  0.00    +0.046 A 
ATOM     17  H   UNL     1      25.882   1.897  52.575  1.00  0.00    +0.167 HD
BRANCH  16  18
ATOM     18  C   UNL     1      26.819  -0.621  53.244  1.00  0.00    -0.002 A 
ATOM     19  C   UNL     1      27.119  -1.895  52.744  1.00  0.00    +0.010 A 
ATOM     20  C   UNL     1      27.849   0.131  53.827  1.00  0.00    +0.010 A 
ATOM     21  C   UNL     1      28.414  -2.411  52.832  1.00  0.00    +0.001 A 
ATOM     22  C   UNL     1      29.146  -0.384  53.914  1.00  0.00    +0.001 A 
ATOM     23  C   UNL     1      29.428  -1.655  53.418  1.00  0.00    +0.000 A 
ENDBRANCH  16  18
ENDBRANCH   3  12
TORSDOF 4
ENDMDL
MODEL 7
REMARK VINA RESULT:    -7.559      3.635      6.422
REMARK INTER + INTRA:          -9.845
REMARK INTER:                  -9.113
REMARK INTRA:                  -0.732
REMARK UNBOUND:                -0.738
REMARK SMILES O=[N+]([O-])c1cc(-c2ccc(-c3ccccc3)[nH]2)ccc1O
REMARK SMILES IDX 4 1 5 2 6 3 18 4 19 5 20 6 2 7 1 8 3 9 21 10 7 12 8 13 17 14
REMARK SMILES IDX 9 15 10 16 11 18 12 19 16 20 13 21 15 22 14 23
REMARK H PARENT 21 11 17 17
ROOT
ATOM      1  C   UNL     1      26.337   1.205  53.491  1.00  0.00    +0.311 A 
ATOM      2  C   UNL     1      25.067   1.514  52.974  1.00  0.00    +0.100 A 
ATOM      3  C   UNL     1      23.982   0.656  53.200  1.00  0.00    +0.005 A 
ATOM      4  C   UNL     1      24.191  -0.515  53.942  1.00  0.00    +0.014 A 
ATOM      5  C   UNL     1      25.455  -0.821  54.455  1.00  0.00    +0.054 A 
ATOM      6  C   UNL     1      26.531   0.035  54.236  1.00  0.00    +0.194 A 
ENDROOT
BRANCH   1   7
ATOM      7  N   UNL     1      27.445   2.128  53.235  1.00  0.00    +0.066 N 
ATOM      8  O   UNL     1      28.118   2.497  54.211  1.00  0.00    -0.258 OA
ATOM      9  O   UNL     1      27.650   2.489  52.068  1.00  0.00    -0.258 OA
ENDBRANCH   1   7
BRANCH   6  10
ATOM     10  O   UNL     1      27.717  -0.367  54.787  1.00  0.00    -0.502 OA
ATOM     11  H   UNL     1      27.729  -1.344  54.878  1.00  0.00    +0.293 HD
ENDBRANCH   6  10
BRANCH   3  12
ATOM     12  C   UNL     1      22.661   0.983  52.660  1.00  0.00    +0.046 A 
ATOM     13  C   UNL     1      22.213   2.111  51.996  1.00  0.00    +0.029 A 
ATOM     14  N   UNL     1      21.569   0.147  52.774  1.00  0.00    -0.355 N 
ATOM     15  C   UNL     1      20.838   1.935  51.703  1.00  0.00    +0.029 A 
ATOM     16  C   UNL     1      20.451   0.699  52.188  1.00  0.00    +0.046 A 
ATOM     17  H   UNL     1      21.574  -0.736  53.263  1.00  0.00    +0.167 HD
BRANCH  16  18
ATOM     18  C   UNL     1      19.149   0.032  52.169  1.00  0.00    -0.002 A 
ATOM     19  C   UNL     1      18.771  -0.809  53.224  1.00  0.00    +0.010 A 
ATOM     20  C   UNL     1      18.254   0.219  51.106  1.00  0.00    +0.010 A 
ATOM     21  C   UNL     1      17.532  -1.456  53.214  1.00  0.00    +0.001 A 
ATOM     22  C   UNL     1      17.013  -0.426  51.097  1.00  0.00    +0.001 A 
ATOM     23  C   UNL     1      16.654  -1.265  52.150  1.00  0.00    +0.000 A 
ENDBRANCH  16  18
ENDBRANCH   3  12
TORSDOF 4
ENDMDL
MODEL 8
REMARK VINA RESULT:    -7.416      3.561      7.447
REMARK INTER + INTRA:          -9.672
REMARK INTER:                  -8.890
REMARK INTRA:                  -0.782
REMARK UNBOUND:                -0.738
REMARK SMILES O=[N+]([O-])c1cc(-c2ccc(-c3ccccc3)[nH]2)ccc1O
REMARK SMILES IDX 4 1 5 2 6 3 18 4 19 5 20 6 2 7 1 8 3 9 21 10 7 12 8 13 17 14
REMARK SMILES IDX 9 15 10 16 11 18 12 19 16 20 13 21 15 22 14 23
REMARK H PARENT 21 11 17 17
ROOT
ATOM      1  C   UNL     1      24.854   2.440  51.440  1.00  0.00    +0.311 A 
ATOM      2  C   UNL     1      23.746   1.714  51.912  1.00  0.00    +0.100 A 
ATOM      3  C   UNL     1      23.903   0.768  52.934  1.00  0.00    +0.005 A 
ATOM      4  C   UNL     1      25.182   0.557  53.468  1.00  0.00    +0.014 A 
ATOM      5  C   UNL     1      26.283   1.279  52.997  1.00  0.00    +0.054 A 
ATOM      6  C   UNL     1      26.125   2.223  51.986  1.00  0.00    +0.194 A 
ENDROOT
BRANCH   1   7
ATOM      7  N   UNL     1      24.649   3.420  50.372  1.00  0.00    +0.066 N 
ATOM      8  O   UNL     1      25.117   4.558  50.544  1.00  0.00    -0.258 OA
ATOM      9  O   UNL     1      24.024   3.067  49.362  1.00  0.00    -0.258 OA
ENDBRANCH   1   7
BRANCH   6  10
ATOM     10  O   UNL     1      27.271   2.869  51.609  1.00  0.00    -0.502 OA
ATOM     11  H   UNL     1      27.527   3.524  52.292  1.00  0.00    +0.293 HD
ENDBRANCH   6  10
BRANCH   3  12
ATOM     12  C   UNL     1      22.746   0.015  53.423  1.00  0.00    +0.046 A 
ATOM     13  C   UNL     1      22.626  -0.858  54.490  1.00  0.00    +0.029 A 
ATOM     14  N   UNL     1      21.508   0.051  52.816  1.00  0.00    -0.355 N 
ATOM     15  C   UNL     1      21.293  -1.337  54.521  1.00  0.00    +0.029 A 
ATOM     16  C   UNL     1      20.603  -0.753  53.473  1.00  0.00    +0.046 A 
ATOM     17  H   UNL     1      21.300   0.564  51.972  1.00  0.00    +0.167 HD
BRANCH  16  18
ATOM     18  C   UNL     1      19.214  -0.911  53.040  1.00  0.00    -0.002 A 
ATOM     19  C   UNL     1      18.679  -0.061  52.063  1.00  0.00    +0.010 A 
ATOM     20  C   UNL     1      18.394  -1.909  53.584  1.00  0.00    +0.010 A 
ATOM     21  C   UNL     1      17.352  -0.199  51.645  1.00  0.00    +0.001 A 
ATOM     22  C   UNL     1      17.068  -2.049  53.165  1.00  0.00    +0.001 A 
ATOM     23  C   UNL     1      16.547  -1.193  52.197  1.00  0.00    +0.000 A 
ENDBRANCH  16  18
ENDBRANCH   3  12
TORSDOF 4
ENDMDL
MODEL 9
REMARK VINA RESULT:    -7.342      2.986      4.116
REMARK INTER + INTRA:          -9.583
REMARK INTER:                  -8.809
REMARK INTRA:                  -0.775
REMARK UNBOUND:                -0.738
REMARK SMILES O=[N+]([O-])c1cc(-c2ccc(-c3ccccc3)[nH]2)ccc1O
REMARK SMILES IDX 4 1 5 2 6 3 18 4 19 5 20 6 2 7 1 8 3 9 21 10 7 12 8 13 17 14
REMARK SMILES IDX 9 15 10 16 11 18 12 19 16 20 13 21 15 22 14 23
REMARK H PARENT 21 11 17 17
ROOT
ATOM      1  C   UNL     1      19.835  -0.053  52.515  1.00  0.00    +0.311 A 
ATOM      2  C   UNL     1      21.082   0.494  52.166  1.00  0.00    +0.100 A 
ATOM      3  C   UNL     1      22.243   0.105  52.847  1.00  0.00    +0.005 A 
ATOM      4  C   UNL     1      22.135  -0.831  53.885  1.00  0.00    +0.014 A 
ATOM      5  C   UNL     1      20.894  -1.375  54.232  1.00  0.00    +0.054 A 
ATOM      6  C   UNL     1      19.741  -0.992  53.551  1.00  0.00    +0.194 A 
ENDROOT
BRANCH   1   7
ATOM      7  N   UNL     1      18.645   0.378  51.779  1.00  0.00    +0.066 N 
ATOM      8  O   UNL     1      18.463   1.601  51.653  1.00  0.00    -0.258 OA
ATOM      9  O   UNL     1      17.890  -0.491  51.323  1.00  0.00    -0.258 OA
ENDBRANCH   1   7
BRANCH   6  10
ATOM     10  O   UNL     1      18.587  -1.591  53.976  1.00  0.00    -0.502 OA
ATOM     11  H   UNL     1      18.798  -2.320  54.597  1.00  0.00    +0.293 HD
ENDBRANCH   6  10
BRANCH   3  12
ATOM     12  C   UNL     1      23.539   0.677  52.478  1.00  0.00    +0.046 A 
ATOM     13  C   UNL     1      24.822   0.319  52.854  1.00  0.00    +0.029 A 
ATOM     14  N   UNL     1      23.675   1.773  51.651  1.00  0.00    -0.355 N 
ATOM     15  C   UNL     1      25.730   1.208  52.231  1.00  0.00    +0.029 A 
ATOM     16  C   UNL     1      25.000   2.107  51.474  1.00  0.00    +0.046 A 
ATOM     17  H   UNL     1      22.903   2.292  51.259  1.00  0.00    +0.167 HD
BRANCH  16  18
ATOM     18  C   UNL     1      25.434   3.236  50.650  1.00  0.00    -0.002 A 
ATOM     19  C   UNL     1      24.701   4.430  50.645  1.00  0.00    +0.010 A 
ATOM     20  C   UNL     1      26.587   3.152  49.857  1.00  0.00    +0.010 A 
ATOM     21  C   UNL     1      25.103   5.512  49.857  1.00  0.00    +0.001 A 
ATOM     22  C   UNL     1      26.991   4.236  49.070  1.00  0.00    +0.001 A 
ATOM     23  C   UNL     1      26.248   5.414  49.070  1.00  0.00    +0.000 A 
ENDBRANCH  16  18
ENDBRANCH   3  12
TORSDOF 4
ENDMDL
