MODEL 1
REMARK VINA RESULT:    -7.424      0.000      0.000
REMARK INTER + INTRA:          -9.332
REMARK INTER:                  -8.726
REMARK INTRA:                  -0.606
REMARK UNBOUND:                -0.606
REMARK SMILES O=[N+]([O-])c1cc(-c2ccc(O)cc2)ccc1O
REMARK SMILES IDX 4 1 5 2 6 3 14 4 15 5 16 6 2 7 1 8 3 9 17 10 7 12 8 13 13 14
REMARK SMILES IDX 9 15 12 16 10 17 11 18
REMARK H PARENT 17 11 11 19
ROOT
ATOM      1  C   UNL     1      26.993   0.551  54.108  1.00  0.00    +0.311 A 
ATOM      2  C   UNL     1      25.674   0.087  54.252  1.00  0.00    +0.098 A 
ATOM      3  C   UNL     1      24.670   0.483  53.350  1.00  0.00    -0.011 A 
ATOM      4  C   UNL     1      25.026   1.353  52.307  1.00  0.00    +0.013 A 
ATOM      5  C   UNL     1      26.339   1.815  52.163  1.00  0.00    +0.054 A 
ATOM      6  C   UNL     1      27.326   1.416  53.060  1.00  0.00    +0.194 A 
ENDROOT
BRANCH   1   7
ATOM      7  N   UNL     1      28.003   0.114  55.075  1.00  0.00    +0.066 N 
ATOM      8  O   UNL     1      29.138  -0.150  54.655  1.00  0.00    -0.258 OA
ATOM      9  O   UNL     1      27.657   0.031  56.265  1.00  0.00    -0.258 OA
ENDBRANCH   1   7
BRANCH   6  10
ATOM     10  O   UNL     1      28.572   1.930  52.820  1.00  0.00    -0.502 OA
ATOM     11  H   UNL     1      29.048   2.064  53.667  1.00  0.00    +0.293 HD
ENDBRANCH   6  10
BRANCH   3  12
ATOM     12  C   UNL     1      23.287  -0.001  53.496  1.00  0.00    -0.018 A 
ATOM     13  C   UNL     1      22.932  -0.874  54.539  1.00  0.00    +0.012 A 
ATOM     14  C   UNL     1      22.281   0.397  52.597  1.00  0.00    +0.012 A 
ATOM     15  C   UNL     1      21.620  -1.333  54.678  1.00  0.00    +0.047 A 
ATOM     16  C   UNL     1      20.966  -0.060  52.733  1.00  0.00    +0.047 A 
ATOM     17  C   UNL     1      20.648  -0.923  53.776  1.00  0.00    +0.115 A 
BRANCH  17  18
ATOM     18  O   UNL     1      19.381  -1.394  53.948  1.00  0.00    -0.508 OA
ATOM     19  H   UNL     1      19.261  -1.627  54.884  1.00  0.00    +0.293 HD
ENDBRANCH  17  18
ENDBRANCH   3  12
TORSDOF 4
ENDMDL
MODEL 2
REMARK VINA RESULT:    -6.881      3.094      4.688
REMARK INTER + INTRA:          -8.694
REMARK INTER:                  -8.099
REMARK INTRA:                  -0.595
REMARK UNBOUND:                -0.606
REMARK SMILES O=[N+]([O-])c1cc(-c2ccc(O)cc2)ccc1O
REMARK SMILES IDX 4 1 5 2 6 3 14 4 15 5 16 6 2 7 1 8 3 9 17 10 7 12 8 13 13 14
REMARK SMILES IDX 9 15 12 16 10 17 11 18
REMARK H PARENT 17 11 11 19
ROOT
ATOM      1  C   UNL     1      24.113  -0.692  54.263  1.00  0.00    +0.311 A 
ATOM      2  C   UNL     1      23.895  -0.002  53.058  1.00  0.00    +0.098 A 
ATOM      3  C   UNL     1      22.596   0.153  52.543  1.00  0.00    -0.011 A 
ATOM      4  C   UNL     1      21.528  -0.403  53.267  1.00  0.00    +0.013 A 
ATOM      5  C   UNL     1      21.745  -1.090  54.466  1.00  0.00    +0.054 A 
ATOM      6  C   UNL     1      23.035  -1.237  54.969  1.00  0.00    +0.194 A 
ENDROOT
BRANCH   1   7
ATOM      7  N   UNL     1      25.485  -0.831  54.758  1.00  0.00    +0.066 N 
ATOM      8  O   UNL     1      25.676  -0.758  55.979  1.00  0.00    -0.258 OA
ATOM      9  O   UNL     1      26.381  -1.011  53.916  1.00  0.00    -0.258 OA
ENDBRANCH   1   7
BRANCH   6  10
ATOM     10  O   UNL     1      23.124  -1.926  56.148  1.00  0.00    -0.502 OA
ATOM     11  H   UNL     1      23.036  -2.889  55.981  1.00  0.00    +0.293 HD
ENDBRANCH   6  10
BRANCH   3  12
ATOM     12  C   UNL     1      22.362   0.877  51.282  1.00  0.00    -0.018 A 
ATOM     13  C   UNL     1      23.216   1.917  50.877  1.00  0.00    +0.012 A 
ATOM     14  C   UNL     1      21.280   0.548  50.447  1.00  0.00    +0.012 A 
ATOM     15  C   UNL     1      22.995   2.604  49.680  1.00  0.00    +0.047 A 
ATOM     16  C   UNL     1      21.056   1.233  49.249  1.00  0.00    +0.047 A 
ATOM     17  C   UNL     1      21.918   2.257  48.876  1.00  0.00    +0.115 A 
BRANCH  17  18
ATOM     18  O   UNL     1      21.740   2.953  47.718  1.00  0.00    -0.508 OA
ATOM     19  H   UNL     1      21.677   2.321  46.982  1.00  0.00    +0.293 HD
ENDBRANCH  17  18
ENDBRANCH   3  12
TORSDOF 4
ENDMDL
MODEL 3
REMARK VINA RESULT:    -6.874      1.379      2.189
REMARK INTER + INTRA:          -8.686
REMARK INTER:                  -8.084
REMARK INTRA:                  -0.602
REMARK UNBOUND:                -0.606
REMARK SMILES O=[N+]([O-])c1cc(-c2ccc(O)cc2)ccc1O
REMARK SMILES IDX 4 1 5 2 6 3 14 4 15 5 16 6 2 7 1 8 3 9 17 10 7 12 8 13 13 14
REMARK SMILES IDX 9 15 12 16 10 17 11 18
REMARK H PARENT 17 11 11 19
ROOT
ATOM      1  C   UNL     1      26.471   1.741  52.348  1.00  0.00    +0.311 A 
ATOM      2  C   UNL     1      25.391   0.999  52.859  1.00  0.00    +0.098 A 
ATOM      3  C   UNL     1      24.094   1.169  52.344  1.00  0.00    -0.011 A 
ATOM      4  C   UNL     1      23.912   2.100  51.308  1.00  0.00    +0.013 A 
ATOM      5  C   UNL     1      24.985   2.839  50.799  1.00  0.00    +0.054 A 
ATOM      6  C   UNL     1      26.267   2.662  51.314  1.00  0.00    +0.194 A 
ENDROOT
BRANCH   1   7
ATOM      7  N   UNL     1      27.803   1.532  52.919  1.00  0.00    +0.066 N 
ATOM      8  O   UNL     1      28.550   2.513  53.034  1.00  0.00    -0.258 OA
ATOM      9  O   UNL     1      28.106   0.375  53.254  1.00  0.00    -0.258 OA
ENDBRANCH   1   7
BRANCH   6  10
ATOM     10  O   UNL     1      27.236   3.437  50.738  1.00  0.00    -0.502 OA
ATOM     11  H   UNL     1      27.984   3.558  51.363  1.00  0.00    +0.293 HD
ENDBRANCH   6  10
BRANCH   3  12
ATOM     12  C   UNL     1      22.960   0.394  52.875  1.00  0.00    -0.018 A 
ATOM     13  C   UNL     1      21.675   0.522  52.320  1.00  0.00    +0.012 A 
ATOM     14  C   UNL     1      23.129  -0.497  53.949  1.00  0.00    +0.012 A 
ATOM     15  C   UNL     1      20.598  -0.214  52.822  1.00  0.00    +0.047 A 
ATOM     16  C   UNL     1      22.054  -1.235  54.454  1.00  0.00    +0.047 A 
ATOM     17  C   UNL     1      20.795  -1.086  53.884  1.00  0.00    +0.115 A 
BRANCH  17  18
ATOM     18  O   UNL     1      19.718  -1.783  54.342  1.00  0.00    -0.508 OA
ATOM     19  H   UNL     1      19.575  -2.550  53.763  1.00  0.00    +0.293 HD
ENDBRANCH  17  18
ENDBRANCH   3  12
TORSDOF 4
ENDMDL
MODEL 4
REMARK VINA RESULT:    -6.844      2.430      3.926
REMARK INTER + INTRA:          -8.651
REMARK INTER:                  -8.036
REMARK INTRA:                  -0.615
REMARK UNBOUND:                -0.606
REMARK SMILES O=[N+]([O-])c1cc(-c2ccc(O)cc2)ccc1O
REMARK SMILES IDX 4 1 5 2 6 3 14 4 15 5 16 6 2 7 1 8 3 9 17 10 7 12 8 13 13 14
REMARK SMILES IDX 9 15 12 16 10 17 11 18
REMARK H PARENT 17 11 11 19
ROOT
ATOM      1  C   UNL     1      24.597  -0.511  53.995  1.00  0.00    +0.311 A 
ATOM      2  C   UNL     1      23.673  -0.103  53.018  1.00  0.00    +0.098 A 
ATOM      3  C   UNL     1      22.295  -0.312  53.200  1.00  0.00    -0.011 A 
ATOM      4  C   UNL     1      21.873  -0.940  54.383  1.00  0.00    +0.013 A 
ATOM      5  C   UNL     1      22.792  -1.347  55.356  1.00  0.00    +0.054 A 
ATOM      6  C   UNL     1      24.155  -1.134  55.168  1.00  0.00    +0.194 A 
ENDROOT
BRANCH   1   7
ATOM      7  N   UNL     1      26.023  -0.275  53.759  1.00  0.00    +0.066 N 
ATOM      8  O   UNL     1      26.386   0.874  53.473  1.00  0.00    -0.258 OA
ATOM      9  O   UNL     1      26.788  -1.248  53.858  1.00  0.00    -0.258 OA
ENDBRANCH   1   7
BRANCH   6  10
ATOM     10  O   UNL     1      24.958  -1.572  56.186  1.00  0.00    -0.502 OA
ATOM     11  H   UNL     1      25.723  -0.967  56.292  1.00  0.00    +0.293 HD
ENDBRANCH   6  10
BRANCH   3  12
ATOM     12  C   UNL     1      21.322   0.115  52.180  1.00  0.00    -0.018 A 
ATOM     13  C   UNL     1      21.750   0.648  50.952  1.00  0.00    +0.012 A 
ATOM     14  C   UNL     1      19.939  -0.000  52.403  1.00  0.00    +0.012 A 
ATOM     15  C   UNL     1      20.828   1.053  49.983  1.00  0.00    +0.047 A 
ATOM     16  C   UNL     1      19.013   0.404  51.436  1.00  0.00    +0.047 A 
ATOM     17  C   UNL     1      19.468   0.928  50.232  1.00  0.00    +0.115 A 
BRANCH  17  18
ATOM     18  O   UNL     1      18.604   1.334  49.260  1.00  0.00    -0.508 OA
ATOM     19  H   UNL     1      19.110   1.523  48.453  1.00  0.00    +0.293 HD
ENDBRANCH  17  18
ENDBRANCH   3  12
TORSDOF 4
ENDMDL
MODEL 5
REMARK VINA RESULT:    -6.820      2.229      6.155
REMARK INTER + INTRA:          -8.623
REMARK INTER:                  -8.085
REMARK INTRA:                  -0.538
REMARK UNBOUND:                -0.606
REMARK SMILES O=[N+]([O-])c1cc(-c2ccc(O)cc2)ccc1O
REMARK SMILES IDX 4 1 5 2 6 3 14 4 15 5 16 6 2 7 1 8 3 9 17 10 7 12 8 13 13 14
REMARK SMILES IDX 9 15 12 16 10 17 11 18
REMARK H PARENT 17 11 11 19
ROOT
ATOM      1  C   UNL     1      22.425  -0.341  53.774  1.00  0.00    +0.311 A 
ATOM      2  C   UNL     1      23.827  -0.429  53.834  1.00  0.00    +0.098 A 
ATOM      3  C   UNL     1      24.635   0.531  53.200  1.00  0.00    -0.011 A 
ATOM      4  C   UNL     1      24.001   1.576  52.509  1.00  0.00    +0.013 A 
ATOM      5  C   UNL     1      22.606   1.664  52.449  1.00  0.00    +0.054 A 
ATOM      6  C   UNL     1      21.813   0.710  53.081  1.00  0.00    +0.194 A 
ENDROOT
BRANCH   1   7
ATOM      7  N   UNL     1      21.625  -1.367  54.447  1.00  0.00    +0.066 N 
ATOM      8  O   UNL     1      22.135  -1.977  55.396  1.00  0.00    -0.258 OA
ATOM      9  O   UNL     1      20.476  -1.566  54.021  1.00  0.00    -0.258 OA
ENDBRANCH   1   7
BRANCH   6  10
ATOM     10  O   UNL     1      20.464   0.900  52.956  1.00  0.00    -0.502 OA
ATOM     11  H   UNL     1      20.285   1.771  52.541  1.00  0.00    +0.293 HD
ENDBRANCH   6  10
BRANCH   3  12
ATOM     12  C   UNL     1      26.104   0.444  53.260  1.00  0.00    -0.018 A 
ATOM     13  C   UNL     1      26.886   1.587  53.500  1.00  0.00    +0.012 A 
ATOM     14  C   UNL     1      26.766  -0.783  53.081  1.00  0.00    +0.012 A 
ATOM     15  C   UNL     1      28.280   1.506  53.558  1.00  0.00    +0.047 A 
ATOM     16  C   UNL     1      28.161  -0.869  53.138  1.00  0.00    +0.047 A 
ATOM     17  C   UNL     1      28.906   0.280  53.377  1.00  0.00    +0.115 A 
BRANCH  17  18
ATOM     18  O   UNL     1      30.267   0.246  53.441  1.00  0.00    -0.508 OA
ATOM     19  H   UNL     1      30.612   1.121  53.198  1.00  0.00    +0.293 HD
ENDBRANCH  17  18
ENDBRANCH   3  12
TORSDOF 4
ENDMDL
MODEL 6
REMARK VINA RESULT:    -6.772      2.517      6.466
REMARK INTER + INTRA:          -8.566
REMARK INTER:                  -7.980
REMARK INTRA:                  -0.586
REMARK UNBOUND:                -0.606
REMARK SMILES O=[N+]([O-])c1cc(-c2ccc(O)cc2)ccc1O
REMARK SMILES IDX 4 1 5 2 6 3 14 4 15 5 16 6 2 7 1 8 3 9 17 10 7 12 8 13 13 14
REMARK SMILES IDX 9 15 12 16 10 17 11 18
REMARK H PARENT 17 11 11 19
ROOT
ATOM      1  C   UNL     1      22.037   0.150  53.048  1.00  0.00    +0.311 A 
ATOM      2  C   UNL     1      23.441   0.171  52.988  1.00  0.00    +0.098 A 
ATOM      3  C   UNL     1      24.212  -0.485  53.964  1.00  0.00    -0.011 A 
ATOM      4  C   UNL     1      23.537  -1.157  54.997  1.00  0.00    +0.013 A 
ATOM      5  C   UNL     1      22.140  -1.178  55.057  1.00  0.00    +0.054 A 
ATOM      6  C   UNL     1      21.385  -0.527  54.084  1.00  0.00    +0.194 A 
ENDROOT
BRANCH   1   7
ATOM      7  N   UNL     1      21.277   0.850  52.010  1.00  0.00    +0.066 N 
ATOM      8  O   UNL     1      20.318   0.263  51.491  1.00  0.00    -0.258 OA
ATOM      9  O   UNL     1      21.644   1.998  51.708  1.00  0.00    -0.258 OA
ENDBRANCH   1   7
BRANCH   6  10
ATOM     10  O   UNL     1      20.029  -0.617  54.245  1.00  0.00    -0.502 OA
ATOM     11  H   UNL     1      19.679   0.222  54.615  1.00  0.00    +0.293 HD
ENDBRANCH   6  10
BRANCH   3  12
ATOM     12  C   UNL     1      25.683  -0.467  53.906  1.00  0.00    -0.018 A 
ATOM     13  C   UNL     1      26.434   0.279  54.831  1.00  0.00    +0.012 A 
ATOM     14  C   UNL     1      26.380  -1.196  52.926  1.00  0.00    +0.012 A 
ATOM     15  C   UNL     1      27.830   0.295  54.778  1.00  0.00    +0.047 A 
ATOM     16  C   UNL     1      27.777  -1.182  52.869  1.00  0.00    +0.047 A 
ATOM     17  C   UNL     1      28.491  -0.434  53.798  1.00  0.00    +0.115 A 
BRANCH  17  18
ATOM     18  O   UNL     1      29.852  -0.390  53.783  1.00  0.00    -0.508 OA
ATOM     19  H   UNL     1      30.170  -0.252  54.690  1.00  0.00    +0.293 HD
ENDBRANCH  17  18
ENDBRANCH   3  12
TORSDOF 4
ENDMDL
MODEL 7
REMARK VINA RESULT:    -6.599      3.350      6.631
REMARK INTER + INTRA:          -8.363
REMARK INTER:                  -7.843
REMARK INTRA:                  -0.520
REMARK UNBOUND:                -0.606
REMARK SMILES O=[N+]([O-])c1cc(-c2ccc(O)cc2)ccc1O
REMARK SMILES IDX 4 1 5 2 6 3 14 4 15 5 16 6 2 7 1 8 3 9 17 10 7 12 8 13 13 14
REMARK SMILES IDX 9 15 12 16 10 17 11 18
REMARK H PARENT 17 11 11 19
ROOT
ATOM      1  C   UNL     1      21.100  -0.324  53.114  1.00  0.00    +0.311 A 
ATOM      2  C   UNL     1      22.050   0.473  52.452  1.00  0.00    +0.098 A 
ATOM      3  C   UNL     1      23.396   0.473  52.857  1.00  0.00    -0.011 A 
ATOM      4  C   UNL     1      23.760  -0.344  53.940  1.00  0.00    +0.013 A 
ATOM      5  C   UNL     1      22.815  -1.138  54.599  1.00  0.00    +0.054 A 
ATOM      6  C   UNL     1      21.484  -1.133  54.189  1.00  0.00    +0.194 A 
ENDROOT
BRANCH   1   7
ATOM      7  N   UNL     1      19.709  -0.288  52.657  1.00  0.00    +0.066 N 
ATOM      8  O   UNL     1      18.830  -0.700  53.427  1.00  0.00    -0.258 OA
ATOM      9  O   UNL     1      19.492   0.153  51.517  1.00  0.00    -0.258 OA
ENDBRANCH   1   7
BRANCH   6  10
ATOM     10  O   UNL     1      20.652  -1.949  54.907  1.00  0.00    -0.502 OA
ATOM     11  H   UNL     1      19.782  -1.512  55.032  1.00  0.00    +0.293 HD
ENDBRANCH   6  10
BRANCH   3  12
ATOM     12  C   UNL     1      24.395   1.306  52.167  1.00  0.00    -0.018 A 
ATOM     13  C   UNL     1      25.768   1.013  52.259  1.00  0.00    +0.012 A 
ATOM     14  C   UNL     1      24.008   2.415  51.395  1.00  0.00    +0.012 A 
ATOM     15  C   UNL     1      26.717   1.801  51.604  1.00  0.00    +0.047 A 
ATOM     16  C   UNL     1      24.956   3.207  50.738  1.00  0.00    +0.047 A 
ATOM     17  C   UNL     1      26.304   2.891  50.849  1.00  0.00    +0.115 A 
BRANCH  17  18
ATOM     18  O   UNL     1      27.263   3.633  50.227  1.00  0.00    -0.508 OA
ATOM     19  H   UNL     1      26.885   4.495  49.990  1.00  0.00    +0.293 HD
ENDBRANCH  17  18
ENDBRANCH   3  12
TORSDOF 4
ENDMDL
MODEL 8
REMARK VINA RESULT:    -6.479      3.199      4.046
REMARK INTER + INTRA:          -8.222
REMARK INTER:                  -7.615
REMARK INTRA:                  -0.607
REMARK UNBOUND:                -0.606
REMARK SMILES O=[N+]([O-])c1cc(-c2ccc(O)cc2)ccc1O
REMARK SMILES IDX 4 1 5 2 6 3 14 4 15 5 16 6 2 7 1 8 3 9 17 10 7 12 8 13 13 14
REMARK SMILES IDX 9 15 12 16 10 17 11 18
REMARK H PARENT 17 11 11 19
ROOT
ATOM      1  C   UNL     1      24.919   3.372  50.936  1.00  0.00    +0.311 A 
ATOM      2  C   UNL     1      23.969   2.563  51.583  1.00  0.00    +0.098 A 
ATOM      3  C   UNL     1      24.345   1.343  52.172  1.00  0.00    -0.011 A 
ATOM      4  C   UNL     1      25.694   0.960  52.093  1.00  0.00    +0.013 A 
ATOM      5  C   UNL     1      26.640   1.766  51.450  1.00  0.00    +0.054 A 
ATOM      6  C   UNL     1      26.258   2.973  50.871  1.00  0.00    +0.194 A 
ENDROOT
BRANCH   1   7
ATOM      7  N   UNL     1      24.478   4.633  50.335  1.00  0.00    +0.066 N 
ATOM      8  O   UNL     1      23.803   5.407  51.027  1.00  0.00    -0.258 OA
ATOM      9  O   UNL     1      24.807   4.850  49.157  1.00  0.00    -0.258 OA
ENDBRANCH   1   7
BRANCH   6  10
ATOM     10  O   UNL     1      27.268   3.676  50.272  1.00  0.00    -0.502 OA
ATOM     11  H   UNL     1      27.015   4.620  50.189  1.00  0.00    +0.293 HD
ENDBRANCH   6  10
BRANCH   3  12
ATOM     12  C   UNL     1      23.354   0.491  52.852  1.00  0.00    -0.018 A 
ATOM     13  C   UNL     1      23.717  -0.298  53.958  1.00  0.00    +0.012 A 
ATOM     14  C   UNL     1      22.018   0.443  52.417  1.00  0.00    +0.012 A 
ATOM     15  C   UNL     1      22.778  -1.105  54.604  1.00  0.00    +0.047 A 
ATOM     16  C   UNL     1      21.075  -0.364  53.061  1.00  0.00    +0.047 A 
ATOM     17  C   UNL     1      21.466  -1.132  54.151  1.00  0.00    +0.115 A 
BRANCH  17  18
ATOM     18  O   UNL     1      20.583  -1.934  54.811  1.00  0.00    -0.508 OA
ATOM     19  H   UNL     1      19.681  -1.629  54.618  1.00  0.00    +0.293 HD
ENDBRANCH  17  18
ENDBRANCH   3  12
TORSDOF 4
ENDMDL
MODEL 9
REMARK VINA RESULT:    -6.340      1.385      2.705
REMARK INTER + INTRA:          -8.058
REMARK INTER:                  -7.489
REMARK INTRA:                  -0.569
REMARK UNBOUND:                -0.606
REMARK SMILES O=[N+]([O-])c1cc(-c2ccc(O)cc2)ccc1O
REMARK SMILES IDX 4 1 5 2 6 3 14 4 15 5 16 6 2 7 1 8 3 9 17 10 7 12 8 13 13 14
REMARK SMILES IDX 9 15 12 16 10 17 11 18
REMARK H PARENT 17 11 11 19
ROOT
ATOM      1  C   UNL     1      26.489   1.189  53.042  1.00  0.00    +0.311 A 
ATOM      2  C   UNL     1      25.115   1.122  52.752  1.00  0.00    +0.098 A 
ATOM      3  C   UNL     1      24.271   0.254  53.466  1.00  0.00    -0.011 A 
ATOM      4  C   UNL     1      24.842  -0.542  54.473  1.00  0.00    +0.013 A 
ATOM      5  C   UNL     1      26.209  -0.476  54.762  1.00  0.00    +0.054 A 
ATOM      6  C   UNL     1      27.037   0.388  54.051  1.00  0.00    +0.194 A 
ENDROOT
BRANCH   1   7
ATOM      7  N   UNL     1      27.329   2.106  52.268  1.00  0.00    +0.066 N 
ATOM      8  O   UNL     1      28.373   2.523  52.789  1.00  0.00    -0.258 OA
ATOM      9  O   UNL     1      26.940   2.415  51.130  1.00  0.00    -0.258 OA
ENDBRANCH   1   7
BRANCH   6  10
ATOM     10  O   UNL     1      28.354   0.368  54.421  1.00  0.00    -0.502 OA
ATOM     11  H   UNL     1      28.530  -0.414  54.987  1.00  0.00    +0.293 HD
ENDBRANCH   6  10
BRANCH   3  12
ATOM     12  C   UNL     1      22.831   0.181  53.167  1.00  0.00    -0.018 A 
ATOM     13  C   UNL     1      22.323   0.647  51.942  1.00  0.00    +0.012 A 
ATOM     14  C   UNL     1      21.923  -0.358  54.095  1.00  0.00    +0.012 A 
ATOM     15  C   UNL     1      20.956   0.577  51.656  1.00  0.00    +0.047 A 
ATOM     16  C   UNL     1      20.555  -0.430  53.814  1.00  0.00    +0.047 A 
ATOM     17  C   UNL     1      20.084   0.040  52.594  1.00  0.00    +0.115 A 
BRANCH  17  18
ATOM     18  O   UNL     1      18.760  -0.009  52.274  1.00  0.00    -0.508 OA
ATOM     19  H   UNL     1      18.243   0.269  53.049  1.00  0.00    +0.293 HD
ENDBRANCH  17  18
ENDBRANCH   3  12
TORSDOF 4
ENDMDL
