REMARK SMILES O=[N+]([O-])c1cc(-c2ccccc2)ccc1O
REMARK SMILES IDX 4 1 5 2 6 3 13 4 14 5 15 6 2 7 1 8 3 9 16 10 7 12 8 13 12 14
REMARK SMILES IDX 9 15 11 16 10 17
REMARK H PARENT 16 11
ROOT
ATOM      1  C   UNL     1      -2.333  -0.822   0.401  1.00  0.00    +0.311 A 
ATOM      2  C   UNL     1      -0.934  -0.891   0.344  1.00  0.00    +0.098 A 
ATOM      3  C   UNL     1      -0.201   0.195  -0.157  1.00  0.00    -0.011 A 
ATOM      4  C   UNL     1      -0.912   1.330  -0.592  1.00  0.00    +0.013 A 
ATOM      5  C   UNL     1      -2.312   1.385  -0.538  1.00  0.00    +0.054 A 
ATOM      6  C   UNL     1      -3.029   0.301  -0.041  1.00  0.00    +0.194 A 
ENDROOT
BRANCH   1   7
ATOM      7  N   UNL     1      -3.047  -1.960   0.938  1.00  0.00    +0.066 N 
ATOM      8  O   UNL     1      -2.912  -3.037   0.339  1.00  0.00    -0.258 OA
ATOM      9  O   UNL     1      -3.689  -1.793   1.984  1.00  0.00    -0.258 OA
ENDBRANCH   1   7
BRANCH   6  10
ATOM     10  O   UNL     1      -4.391   0.338  -0.017  1.00  0.00    -0.502 OA
ATOM     11  H   UNL     1      -4.705   1.214  -0.302  1.00  0.00    +0.293 HD
ENDBRANCH   6  10
BRANCH   3  12
ATOM     12  C   UNL     1       1.268   0.149  -0.226  1.00  0.00    -0.018 A 
ATOM     13  C   UNL     1       1.930  -0.909  -0.872  1.00  0.00    +0.009 A 
ATOM     14  C   UNL     1       2.053   1.161   0.353  1.00  0.00    +0.009 A 
ATOM     15  C   UNL     1       3.325  -0.953  -0.938  1.00  0.00    +0.001 A 
ATOM     16  C   UNL     1       3.448   1.117   0.289  1.00  0.00    +0.001 A 
ATOM     17  C   UNL     1       4.083   0.059  -0.357  1.00  0.00    +0.000 A 
ENDBRANCH   3  12
TORSDOF 3
