REMARK SMILES COc1[nH]c(Cc2cc(C(=O)O)cc(O)c2O)cc1C
REMARK SMILES IDX 7 1 8 2 9 3 13 4 14 5 16 6 6 7 5 8 3 9 4 10 19 11 18 12
REMARK SMILES IDX 20 14 2 15 1 16 17 17 10 19 11 20 12 21 15 23
REMARK H PARENT 4 13 17 18 12 22 15 24
ROOT
ATOM      1  C   UNL     1       1.333   0.551  -0.707  1.00  0.00    +0.004 A 
ATOM      2  C   UNL     1       2.002   1.454   0.143  1.00  0.00    +0.024 A 
ATOM      3  C   UNL     1       3.129   1.061   0.888  1.00  0.00    +0.064 A 
ATOM      4  C   UNL     1       3.607  -0.247   0.790  1.00  0.00    +0.065 A 
ATOM      5  C   UNL     1       2.948  -1.139  -0.044  1.00  0.00    +0.158 A 
ATOM      6  C   UNL     1       1.822  -0.758  -0.779  1.00  0.00    +0.161 A 
ENDROOT
BRANCH   1   7
ATOM      7  C   UNL     1       0.148   1.036  -1.510  1.00  0.00    +0.093 C 
BRANCH   7   8
ATOM      8  C   UNL     1      -1.147   0.398  -1.117  1.00  0.00    +0.023 A 
ATOM      9  C   UNL     1      -2.753  -0.371   0.271  1.00  0.00    +0.193 A 
ATOM     10  N   UNL     1      -1.539   0.270   0.196  1.00  0.00    -0.330 N 
ATOM     11  C   UNL     1      -3.163  -0.628  -1.026  1.00  0.00    +0.011 A 
ATOM     12  C   UNL     1      -2.151  -0.138  -1.895  1.00  0.00    +0.030 A 
ATOM     13  H   UNL     1      -0.997   0.584   0.988  1.00  0.00    +0.169 HD
ATOM     14  C   UNL     1      -4.430  -1.294  -1.426  1.00  0.00    +0.050 C 
BRANCH   9  15
ATOM     15  O   UNL     1      -3.390  -0.663   1.410  1.00  0.00    -0.482 OA
ATOM     16  C   UNL     1      -2.745  -0.347   2.636  1.00  0.00    +0.280 C 
ENDBRANCH   9  15
ENDBRANCH   7   8
ENDBRANCH   1   7
BRANCH   6  17
ATOM     17  O   UNL     1       1.252  -1.738  -1.548  1.00  0.00    -0.504 OA
ATOM     18  H   UNL     1       0.342  -1.471  -1.773  1.00  0.00    +0.293 HD
ENDBRANCH   6  17
BRANCH   3  19
ATOM     19  C   UNL     1       3.774   2.069   1.763  1.00  0.00    +0.335 C 
ATOM     20  O   UNL     1       3.386   3.211   1.930  1.00  0.00    -0.246 OA
BRANCH  19  21
ATOM     21  O   UNL     1       4.866   1.599   2.389  1.00  0.00    -0.478 OA
ATOM     22  H   UNL     1       5.188   2.359   2.918  1.00  0.00    +0.297 HD
ENDBRANCH  19  21
ENDBRANCH   3  19
BRANCH   5  23
ATOM     23  O   UNL     1       3.413  -2.421  -0.136  1.00  0.00    -0.504 OA
ATOM     24  H   UNL     1       2.816  -2.853  -0.780  1.00  0.00    +0.293 HD
ENDBRANCH   5  23
TORSDOF 7
