REMARK SMILES N#CC(=Cc1ccccn1)C(N)=C(C#N)C(N)=C(C#N)C#N
REMARK SMILES IDX 16 1 18 2 19 3 20 4 21 5 22 6 13 7 11 8 14 9 15 10 3 11 1 12
REMARK SMILES IDX 2 13 4 14 5 15 6 16 10 17 7 18 9 19 8 20 12 21 17 24
REMARK H PARENT 12 22 12 23 17 25 17 26
ROOT
ATOM      1  C   UNL     1       3.345  -0.595  -0.247  1.00  0.00    +0.081 C 
ATOM      2  C   UNL     1       3.691  -0.984   1.009  1.00  0.00    +0.153 C 
ATOM      3  C   UNL     1       4.958  -1.583   1.260  1.00  0.00    +0.113 C 
ATOM      4  N   UNL     1       6.003  -2.057   1.429  1.00  0.00    -0.192 NA
ATOM      5  C   UNL     1       2.815  -0.824   2.123  1.00  0.00    +0.113 C 
ATOM      6  N   UNL     1       2.089  -0.680   3.017  1.00  0.00    -0.192 NA
ENDROOT
BRANCH   1   7
ATOM      7  C   UNL     1       2.013  -0.007  -0.503  1.00  0.00    +0.101 C 
ATOM      8  C   UNL     1       0.917  -0.785  -0.713  1.00  0.00    +0.070 C 
ATOM      9  C   UNL     1       1.950   1.424  -0.489  1.00  0.00    +0.104 C 
ATOM     10  N   UNL     1       1.938   2.584  -0.492  1.00  0.00    -0.192 NA
BRANCH   8  11
ATOM     11  C   UNL     1      -0.416  -0.191  -0.890  1.00  0.00    +0.078 C 
ATOM     12  N   UNL     1      -1.093   0.394  -3.321  1.00  0.00    -0.192 NA
ATOM     13  C   UNL     1      -0.795   0.156  -2.224  1.00  0.00    +0.101 C 
ATOM     14  C   UNL     1      -1.209   0.017   0.179  1.00  0.00    +0.050 C 
BRANCH  14  15
ATOM     15  C   UNL     1      -2.544   0.619   0.195  1.00  0.00    +0.064 A 
ATOM     16  C   UNL     1      -3.579   0.210  -0.639  1.00  0.00    +0.028 A 
ATOM     17  N   UNL     1      -2.705   1.566   1.145  1.00  0.00    -0.257 NA
ATOM     18  C   UNL     1      -4.821   0.830  -0.518  1.00  0.00    +0.004 A 
ATOM     19  C   UNL     1      -3.919   2.153   1.239  1.00  0.00    +0.111 A 
ATOM     20  C   UNL     1      -4.996   1.824   0.436  1.00  0.00    +0.020 A 
ENDBRANCH  14  15
ENDBRANCH   8  11
BRANCH   8  21
ATOM     21  N   UNL     1       0.961  -2.179  -0.736  1.00  0.00    -0.397 N 
ATOM     22  H   UNL     1       0.176  -2.611  -1.224  1.00  0.00    +0.156 HD
ATOM     23  H   UNL     1       1.848  -2.551  -1.080  1.00  0.00    +0.156 HD
ENDBRANCH   8  21
ENDBRANCH   1   7
BRANCH   1  24
ATOM     24  N   UNL     1       4.143  -0.755  -1.381  1.00  0.00    -0.396 N 
ATOM     25  H   UNL     1       3.975  -0.076  -2.125  1.00  0.00    +0.156 HD
ATOM     26  H   UNL     1       5.143  -0.877  -1.213  1.00  0.00    +0.156 HD
ENDBRANCH   1  24
TORSDOF 5
