MODEL 1
REMARK VINA RESULT:    -8.307      0.000      0.000
REMARK INTER + INTRA:          -9.584
REMARK INTER:                  -9.278
REMARK INTRA:                  -0.305
REMARK UNBOUND:                -0.305
REMARK SMILES Cc1cc(C)c(-c2cc(C)c(-c3ccccc3)[nH]2)[nH]1
REMARK SMILES IDX 1 1 2 2 3 3 4 4 5 5 6 6 19 7 7 9 8 10 18 11 9 12 11 13 10 15
REMARK SMILES IDX 12 16 13 17 17 18 14 19 16 20 15 21
REMARK H PARENT 19 8 18 14
ROOT
ATOM      1  C   UNL     1      18.850  -0.040  52.109  1.00  0.00    +0.064 C 
ATOM      2  C   UNL     1      20.162  -0.232  52.772  1.00  0.00    +0.012 A 
ATOM      3  C   UNL     1      20.504  -0.894  53.931  1.00  0.00    +0.026 A 
ATOM      4  C   UNL     1      21.912  -0.772  54.115  1.00  0.00    -0.024 A 
ATOM      5  C   UNL     1      22.672  -1.327  55.268  1.00  0.00    +0.047 C 
ATOM      6  C   UNL     1      22.395  -0.037  53.041  1.00  0.00    +0.065 A 
ATOM      7  N   UNL     1      21.319   0.290  52.251  1.00  0.00    -0.357 N 
ATOM      8  H   UNL     1      21.383   0.820  51.393  1.00  0.00    +0.166 HD
ENDROOT
BRANCH   6   9
ATOM      9  C   UNL     1      23.721   0.375  52.693  1.00  0.00    +0.063 A 
ATOM     10  C   UNL     1      24.148   1.390  51.859  1.00  0.00    +0.033 A 
ATOM     11  N   UNL     1      24.848  -0.247  53.164  1.00  0.00    -0.353 N 
ATOM     12  C   UNL     1      25.573   1.383  51.836  1.00  0.00    -0.025 A 
ATOM     13  C   UNL     1      25.987   0.344  52.660  1.00  0.00    +0.049 A 
ATOM     14  H   UNL     1      24.847  -1.057  53.765  1.00  0.00    +0.167 HD
ATOM     15  C   UNL     1      26.433   2.330  51.077  1.00  0.00    +0.047 C 
BRANCH  13  16
ATOM     16  C   UNL     1      27.320  -0.146  53.004  1.00  0.00    -0.002 A 
ATOM     17  C   UNL     1      27.654  -1.491  52.809  1.00  0.00    +0.010 A 
ATOM     18  C   UNL     1      28.279   0.722  53.540  1.00  0.00    +0.010 A 
ATOM     19  C   UNL     1      28.926  -1.961  53.144  1.00  0.00    +0.001 A 
ATOM     20  C   UNL     1      29.552   0.252  53.875  1.00  0.00    +0.001 A 
ATOM     21  C   UNL     1      29.874  -1.089  53.677  1.00  0.00    +0.000 A 
ENDBRANCH  13  16
ENDBRANCH   6   9
TORSDOF 2
ENDMDL
MODEL 2
REMARK VINA RESULT:    -7.938      2.511      4.964
REMARK INTER + INTRA:          -9.171
REMARK INTER:                  -8.596
REMARK INTRA:                  -0.575
REMARK UNBOUND:                -0.305
REMARK SMILES Cc1cc(C)c(-c2cc(C)c(-c3ccccc3)[nH]2)[nH]1
REMARK SMILES IDX 1 1 2 2 3 3 4 4 5 5 6 6 19 7 7 9 8 10 18 11 9 12 11 13 10 15
REMARK SMILES IDX 12 16 13 17 17 18 14 19 16 20 15 21
REMARK H PARENT 19 8 18 14
ROOT
ATOM      1  C   UNL     1      26.133   6.561  49.448  1.00  0.00    +0.064 C 
ATOM      2  C   UNL     1      25.396   5.285  49.610  1.00  0.00    +0.012 A 
ATOM      3  C   UNL     1      24.321   4.765  48.921  1.00  0.00    +0.026 A 
ATOM      4  C   UNL     1      24.002   3.496  49.486  1.00  0.00    -0.024 A 
ATOM      5  C   UNL     1      22.883   2.622  49.041  1.00  0.00    +0.047 C 
ATOM      6  C   UNL     1      24.913   3.271  50.509  1.00  0.00    +0.065 A 
ATOM      7  N   UNL     1      25.735   4.371  50.575  1.00  0.00    -0.357 N 
ATOM      8  H   UNL     1      26.498   4.473  51.229  1.00  0.00    +0.166 HD
ENDROOT
BRANCH   6   9
ATOM      9  C   UNL     1      25.083   2.166  51.403  1.00  0.00    +0.063 A 
ATOM     10  C   UNL     1      24.193   1.592  52.288  1.00  0.00    +0.033 A 
ATOM     11  N   UNL     1      26.262   1.477  51.528  1.00  0.00    -0.353 N 
ATOM     12  C   UNL     1      24.852   0.521  52.958  1.00  0.00    -0.025 A 
ATOM     13  C   UNL     1      26.150   0.474  52.466  1.00  0.00    +0.049 A 
ATOM     14  H   UNL     1      27.112   1.702  51.034  1.00  0.00    +0.167 HD
ATOM     15  C   UNL     1      24.241  -0.372  53.978  1.00  0.00    +0.047 C 
BRANCH  13  16
ATOM     16  C   UNL     1      27.278  -0.397  52.793  1.00  0.00    -0.002 A 
ATOM     17  C   UNL     1      28.461   0.139  53.314  1.00  0.00    +0.010 A 
ATOM     18  C   UNL     1      27.192  -1.779  52.583  1.00  0.00    +0.010 A 
ATOM     19  C   UNL     1      29.542  -0.692  53.619  1.00  0.00    +0.001 A 
ATOM     20  C   UNL     1      28.273  -2.611  52.890  1.00  0.00    +0.001 A 
ATOM     21  C   UNL     1      29.447  -2.066  53.407  1.00  0.00    +0.000 A 
ENDBRANCH  13  16
ENDBRANCH   6   9
TORSDOF 2
ENDMDL
MODEL 3
REMARK VINA RESULT:    -7.807      2.106      3.722
REMARK INTER + INTRA:          -9.025
REMARK INTER:                  -8.442
REMARK INTRA:                  -0.583
REMARK UNBOUND:                -0.305
REMARK SMILES Cc1cc(C)c(-c2cc(C)c(-c3ccccc3)[nH]2)[nH]1
REMARK SMILES IDX 1 1 2 2 3 3 4 4 5 5 6 6 19 7 7 9 8 10 18 11 9 12 11 13 10 15
REMARK SMILES IDX 12 16 13 17 17 18 14 19 16 20 15 21
REMARK H PARENT 19 8 18 14
ROOT
ATOM      1  C   UNL     1      23.465   4.760  48.846  1.00  0.00    +0.064 C 
ATOM      2  C   UNL     1      23.145   3.500  49.558  1.00  0.00    +0.012 A 
ATOM      3  C   UNL     1      22.067   2.648  49.452  1.00  0.00    +0.026 A 
ATOM      4  C   UNL     1      22.254   1.575  50.372  1.00  0.00    -0.024 A 
ATOM      5  C   UNL     1      21.296   0.457  50.583  1.00  0.00    +0.047 C 
ATOM      6  C   UNL     1      23.465   1.803  51.011  1.00  0.00    +0.065 A 
ATOM      7  N   UNL     1      23.977   2.978  50.514  1.00  0.00    -0.357 N 
ATOM      8  H   UNL     1      24.859   3.380  50.801  1.00  0.00    +0.166 HD
ENDROOT
BRANCH   6   9
ATOM      9  C   UNL     1      24.166   1.053  52.010  1.00  0.00    +0.063 A 
ATOM     10  C   UNL     1      23.696   0.436  53.152  1.00  0.00    +0.033 A 
ATOM     11  N   UNL     1      25.520   0.844  51.978  1.00  0.00    -0.353 N 
ATOM     12  C   UNL     1      24.799  -0.170  53.821  1.00  0.00    -0.025 A 
ATOM     13  C   UNL     1      25.932   0.105  53.066  1.00  0.00    +0.049 A 
ATOM     14  H   UNL     1      26.141   1.218  51.277  1.00  0.00    +0.167 HD
ATOM     15  C   UNL     1      24.724  -0.956  55.082  1.00  0.00    +0.047 C 
BRANCH  13  16
ATOM     16  C   UNL     1      27.337  -0.242  53.268  1.00  0.00    -0.002 A 
ATOM     17  C   UNL     1      28.253   0.727  53.692  1.00  0.00    +0.010 A 
ATOM     18  C   UNL     1      27.788  -1.547  53.033  1.00  0.00    +0.010 A 
ATOM     19  C   UNL     1      29.598   0.398  53.878  1.00  0.00    +0.001 A 
ATOM     20  C   UNL     1      29.133  -1.876  53.221  1.00  0.00    +0.001 A 
ATOM     21  C   UNL     1      30.037  -0.903  53.642  1.00  0.00    +0.000 A 
ENDBRANCH  13  16
ENDBRANCH   6   9
TORSDOF 2
ENDMDL
MODEL 4
REMARK VINA RESULT:    -7.671      2.915      5.370
REMARK INTER + INTRA:          -8.873
REMARK INTER:                  -8.504
REMARK INTRA:                  -0.369
REMARK UNBOUND:                -0.305
REMARK SMILES Cc1cc(C)c(-c2cc(C)c(-c3ccccc3)[nH]2)[nH]1
REMARK SMILES IDX 1 1 2 2 3 3 4 4 5 5 6 6 19 7 7 9 8 10 18 11 9 12 11 13 10 15
REMARK SMILES IDX 12 16 13 17 17 18 14 19 16 20 15 21
REMARK H PARENT 19 8 18 14
ROOT
ATOM      1  C   UNL     1      21.831  -0.825  54.816  1.00  0.00    +0.064 C 
ATOM      2  C   UNL     1      22.918  -0.310  53.951  1.00  0.00    +0.012 A 
ATOM      3  C   UNL     1      24.267  -0.591  53.927  1.00  0.00    +0.026 A 
ATOM      4  C   UNL     1      24.865   0.185  52.891  1.00  0.00    -0.024 A 
ATOM      5  C   UNL     1      26.315   0.189  52.559  1.00  0.00    +0.047 C 
ATOM      6  C   UNL     1      23.845   0.917  52.298  1.00  0.00    +0.065 A 
ATOM      7  N   UNL     1      22.682   0.613  52.964  1.00  0.00    -0.357 N 
ATOM      8  H   UNL     1      21.777   1.000  52.735  1.00  0.00    +0.166 HD
ENDROOT
BRANCH   6   9
ATOM      9  C   UNL     1      23.853   1.842  51.206  1.00  0.00    +0.063 A 
ATOM     10  C   UNL     1      22.916   2.058  50.215  1.00  0.00    +0.033 A 
ATOM     11  N   UNL     1      24.891   2.703  50.960  1.00  0.00    -0.353 N 
ATOM     12  C   UNL     1      23.400   3.085  49.354  1.00  0.00    -0.025 A 
ATOM     13  C   UNL     1      24.643   3.469  49.841  1.00  0.00    +0.049 A 
ATOM     14  H   UNL     1      25.743   2.742  51.498  1.00  0.00    +0.167 HD
ATOM     15  C   UNL     1      22.685   3.635  48.172  1.00  0.00    +0.047 C 
BRANCH  13  16
ATOM     16  C   UNL     1      25.607   4.457  49.361  1.00  0.00    -0.002 A 
ATOM     17  C   UNL     1      25.220   5.787  49.159  1.00  0.00    +0.010 A 
ATOM     18  C   UNL     1      26.929   4.085  49.089  1.00  0.00    +0.010 A 
ATOM     19  C   UNL     1      26.139   6.729  48.693  1.00  0.00    +0.001 A 
ATOM     20  C   UNL     1      27.849   5.029  48.623  1.00  0.00    +0.001 A 
ATOM     21  C   UNL     1      27.453   6.350  48.425  1.00  0.00    +0.000 A 
ENDBRANCH  13  16
ENDBRANCH   6   9
TORSDOF 2
ENDMDL
MODEL 5
REMARK VINA RESULT:    -7.654      1.717      6.999
REMARK INTER + INTRA:          -8.854
REMARK INTER:                  -8.189
REMARK INTRA:                  -0.665
REMARK UNBOUND:                -0.305
REMARK SMILES Cc1cc(C)c(-c2cc(C)c(-c3ccccc3)[nH]2)[nH]1
REMARK SMILES IDX 1 1 2 2 3 3 4 4 5 5 6 6 19 7 7 9 8 10 18 11 9 12 11 13 10 15
REMARK SMILES IDX 12 16 13 17 17 18 14 19 16 20 15 21
REMARK H PARENT 19 8 18 14
ROOT
ATOM      1  C   UNL     1      29.141   1.935  54.207  1.00  0.00    +0.064 C 
ATOM      2  C   UNL     1      28.191   0.883  53.775  1.00  0.00    +0.012 A 
ATOM      3  C   UNL     1      28.406  -0.356  53.212  1.00  0.00    +0.026 A 
ATOM      4  C   UNL     1      27.138  -0.969  52.988  1.00  0.00    -0.024 A 
ATOM      5  C   UNL     1      26.937  -2.306  52.367  1.00  0.00    +0.047 C 
ATOM      6  C   UNL     1      26.176  -0.077  53.440  1.00  0.00    +0.065 A 
ATOM      7  N   UNL     1      26.834   1.040  53.896  1.00  0.00    -0.357 N 
ATOM      8  H   UNL     1      26.375   1.849  54.290  1.00  0.00    +0.166 HD
ENDROOT
BRANCH   6   9
ATOM      9  C   UNL     1      24.747  -0.165  53.483  1.00  0.00    +0.063 A 
ATOM     10  C   UNL     1      23.927  -0.933  54.284  1.00  0.00    +0.033 A 
ATOM     11  N   UNL     1      23.927   0.549  52.649  1.00  0.00    -0.353 N 
ATOM     12  C   UNL     1      22.573  -0.667  53.928  1.00  0.00    -0.025 A 
ATOM     13  C   UNL     1      22.601   0.263  52.896  1.00  0.00    +0.049 A 
ATOM     14  H   UNL     1      24.248   1.167  51.920  1.00  0.00    +0.167 HD
ATOM     15  C   UNL     1      21.373  -1.272  54.565  1.00  0.00    +0.047 C 
BRANCH  13  16
ATOM     16  C   UNL     1      21.527   0.889  52.128  1.00  0.00    -0.002 A 
ATOM     17  C   UNL     1      20.763   1.921  52.685  1.00  0.00    +0.010 A 
ATOM     18  C   UNL     1      21.242   0.458  50.826  1.00  0.00    +0.010 A 
ATOM     19  C   UNL     1      19.731   2.513  51.953  1.00  0.00    +0.001 A 
ATOM     20  C   UNL     1      20.210   1.051  50.094  1.00  0.00    +0.001 A 
ATOM     21  C   UNL     1      19.455   2.078  50.658  1.00  0.00    +0.000 A 
ENDBRANCH  13  16
ENDBRANCH   6   9
TORSDOF 2
ENDMDL
MODEL 6
REMARK VINA RESULT:    -7.647      1.347      6.678
REMARK INTER + INTRA:          -8.846
REMARK INTER:                  -8.391
REMARK INTRA:                  -0.456
REMARK UNBOUND:                -0.305
REMARK SMILES Cc1cc(C)c(-c2cc(C)c(-c3ccccc3)[nH]2)[nH]1
REMARK SMILES IDX 1 1 2 2 3 3 4 4 5 5 6 6 19 7 7 9 8 10 18 11 9 12 11 13 10 15
REMARK SMILES IDX 12 16 13 17 17 18 14 19 16 20 15 21
REMARK H PARENT 19 8 18 14
ROOT
ATOM      1  C   UNL     1      29.134  -2.742  53.179  1.00  0.00    +0.064 C 
ATOM      2  C   UNL     1      28.705  -1.328  53.294  1.00  0.00    +0.012 A 
ATOM      3  C   UNL     1      29.420  -0.184  53.572  1.00  0.00    +0.026 A 
ATOM      4  C   UNL     1      28.516   0.919  53.563  1.00  0.00    -0.024 A 
ATOM      5  C   UNL     1      28.892   2.331  53.846  1.00  0.00    +0.047 C 
ATOM      6  C   UNL     1      27.261   0.408  53.264  1.00  0.00    +0.065 A 
ATOM      7  N   UNL     1      27.397  -0.953  53.120  1.00  0.00    -0.357 N 
ATOM      8  H   UNL     1      26.638  -1.579  52.892  1.00  0.00    +0.166 HD
ENDROOT
BRANCH   6   9
ATOM      9  C   UNL     1      25.990   1.046  53.106  1.00  0.00    +0.063 A 
ATOM     10  C   UNL     1      25.673   2.386  53.008  1.00  0.00    +0.033 A 
ATOM     11  N   UNL     1      24.807   0.356  53.045  1.00  0.00    -0.353 N 
ATOM     12  C   UNL     1      24.259   2.505  52.875  1.00  0.00    -0.025 A 
ATOM     13  C   UNL     1      23.740   1.217  52.905  1.00  0.00    +0.049 A 
ATOM     14  H   UNL     1      24.722  -0.645  53.135  1.00  0.00    +0.167 HD
ATOM     15  C   UNL     1      23.506   3.778  52.720  1.00  0.00    +0.047 C 
BRANCH  13  16
ATOM     16  C   UNL     1      22.365   0.726  52.829  1.00  0.00    -0.002 A 
ATOM     17  C   UNL     1      21.681   0.716  51.609  1.00  0.00    +0.010 A 
ATOM     18  C   UNL     1      21.711   0.266  53.979  1.00  0.00    +0.010 A 
ATOM     19  C   UNL     1      20.365   0.255  51.537  1.00  0.00    +0.001 A 
ATOM     20  C   UNL     1      20.394  -0.197  53.908  1.00  0.00    +0.001 A 
ATOM     21  C   UNL     1      19.722  -0.202  52.687  1.00  0.00    +0.000 A 
ENDBRANCH  13  16
ENDBRANCH   6   9
TORSDOF 2
ENDMDL
MODEL 7
REMARK VINA RESULT:    -7.462      1.816      6.884
REMARK INTER + INTRA:          -8.639
REMARK INTER:                  -8.053
REMARK INTRA:                  -0.586
REMARK UNBOUND:                -0.305
REMARK SMILES Cc1cc(C)c(-c2cc(C)c(-c3ccccc3)[nH]2)[nH]1
REMARK SMILES IDX 1 1 2 2 3 3 4 4 5 5 6 6 19 7 7 9 8 10 18 11 9 12 11 13 10 15
REMARK SMILES IDX 12 16 13 17 17 18 14 19 16 20 15 21
REMARK H PARENT 19 8 18 14
ROOT
ATOM      1  C   UNL     1      29.866  -2.246  53.511  1.00  0.00    +0.064 C 
ATOM      2  C   UNL     1      28.877  -1.142  53.533  1.00  0.00    +0.012 A 
ATOM      3  C   UNL     1      29.045   0.225  53.490  1.00  0.00    +0.026 A 
ATOM      4  C   UNL     1      27.756   0.834  53.539  1.00  0.00    -0.024 A 
ATOM      5  C   UNL     1      27.507   2.300  53.543  1.00  0.00    +0.047 C 
ATOM      6  C   UNL     1      26.828  -0.197  53.599  1.00  0.00    +0.065 A 
ATOM      7  N   UNL     1      27.529  -1.379  53.609  1.00  0.00    -0.357 N 
ATOM      8  H   UNL     1      27.100  -2.294  53.641  1.00  0.00    +0.166 HD
ENDROOT
BRANCH   6   9
ATOM      9  C   UNL     1      25.397  -0.183  53.648  1.00  0.00    +0.063 A 
ATOM     10  C   UNL     1      24.530  -0.825  54.509  1.00  0.00    +0.033 A 
ATOM     11  N   UNL     1      24.623   0.513  52.756  1.00  0.00    -0.353 N 
ATOM     12  C   UNL     1      23.196  -0.498  54.130  1.00  0.00    -0.025 A 
ATOM     13  C   UNL     1      23.283   0.340  53.025  1.00  0.00    +0.049 A 
ATOM     14  H   UNL     1      24.983   1.047  51.979  1.00  0.00    +0.167 HD
ATOM     15  C   UNL     1      21.960  -0.965  54.813  1.00  0.00    +0.047 C 
BRANCH  13  16
ATOM     16  C   UNL     1      22.250   0.972  52.206  1.00  0.00    -0.002 A 
ATOM     17  C   UNL     1      21.472   0.206  51.330  1.00  0.00    +0.010 A 
ATOM     18  C   UNL     1      22.029   2.352  52.282  1.00  0.00    +0.010 A 
ATOM     19  C   UNL     1      20.490   0.810  50.542  1.00  0.00    +0.001 A 
ATOM     20  C   UNL     1      21.046   2.957  51.493  1.00  0.00    +0.001 A 
ATOM     21  C   UNL     1      20.278   2.185  50.624  1.00  0.00    +0.000 A 
ENDBRANCH  13  16
ENDBRANCH   6   9
TORSDOF 2
ENDMDL
MODEL 8
REMARK VINA RESULT:    -7.445      3.809      5.158
REMARK INTER + INTRA:          -8.620
REMARK INTER:                  -8.095
REMARK INTRA:                  -0.525
REMARK UNBOUND:                -0.305
REMARK SMILES Cc1cc(C)c(-c2cc(C)c(-c3ccccc3)[nH]2)[nH]1
REMARK SMILES IDX 1 1 2 2 3 3 4 4 5 5 6 6 19 7 7 9 8 10 18 11 9 12 11 13 10 15
REMARK SMILES IDX 12 16 13 17 17 18 14 19 16 20 15 21
REMARK H PARENT 19 8 18 14
ROOT
ATOM      1  C   UNL     1      22.522  -1.220  55.072  1.00  0.00    +0.064 C 
ATOM      2  C   UNL     1      21.817  -0.632  53.909  1.00  0.00    +0.012 A 
ATOM      3  C   UNL     1      20.477  -0.584  53.591  1.00  0.00    +0.026 A 
ATOM      4  C   UNL     1      20.338   0.104  52.350  1.00  0.00    -0.024 A 
ATOM      5  C   UNL     1      19.047   0.342  51.648  1.00  0.00    +0.047 C 
ATOM      6  C   UNL     1      21.615   0.470  51.948  1.00  0.00    +0.065 A 
ATOM      7  N   UNL     1      22.492   0.002  52.898  1.00  0.00    -0.357 N 
ATOM      8  H   UNL     1      23.494   0.135  52.861  1.00  0.00    +0.166 HD
ENDROOT
BRANCH   6   9
ATOM      9  C   UNL     1      22.079   1.190  50.801  1.00  0.00    +0.063 A 
ATOM     10  C   UNL     1      21.637   1.160  49.494  1.00  0.00    +0.033 A 
ATOM     11  N   UNL     1      23.130   2.068  50.842  1.00  0.00    -0.353 N 
ATOM     12  C   UNL     1      22.440   2.054  48.728  1.00  0.00    -0.025 A 
ATOM     13  C   UNL     1      23.372   2.608  49.597  1.00  0.00    +0.049 A 
ATOM     14  H   UNL     1      23.683   2.263  51.663  1.00  0.00    +0.167 HD
ATOM     15  C   UNL     1      22.282   2.336  47.276  1.00  0.00    +0.047 C 
BRANCH  13  16
ATOM     16  C   UNL     1      24.453   3.566  49.374  1.00  0.00    -0.002 A 
ATOM     17  C   UNL     1      25.789   3.171  49.506  1.00  0.00    +0.010 A 
ATOM     18  C   UNL     1      24.167   4.893  49.033  1.00  0.00    +0.010 A 
ATOM     19  C   UNL     1      26.823   4.088  49.302  1.00  0.00    +0.001 A 
ATOM     20  C   UNL     1      25.200   5.811  48.827  1.00  0.00    +0.001 A 
ATOM     21  C   UNL     1      26.527   5.407  48.962  1.00  0.00    +0.000 A 
ENDBRANCH  13  16
ENDBRANCH   6   9
TORSDOF 2
ENDMDL
MODEL 9
REMARK VINA RESULT:    -7.432      2.114      3.713
REMARK INTER + INTRA:          -8.606
REMARK INTER:                  -8.133
REMARK INTRA:                  -0.473
REMARK UNBOUND:                -0.305
REMARK SMILES Cc1cc(C)c(-c2cc(C)c(-c3ccccc3)[nH]2)[nH]1
REMARK SMILES IDX 1 1 2 2 3 3 4 4 5 5 6 6 19 7 7 9 8 10 18 11 9 12 11 13 10 15
REMARK SMILES IDX 12 16 13 17 17 18 14 19 16 20 15 21
REMARK H PARENT 19 8 18 14
ROOT
ATOM      1  C   UNL     1      20.788   2.783  48.589  1.00  0.00    +0.064 C 
ATOM      2  C   UNL     1      22.110   2.823  49.259  1.00  0.00    +0.012 A 
ATOM      3  C   UNL     1      23.172   3.689  49.116  1.00  0.00    +0.026 A 
ATOM      4  C   UNL     1      24.207   3.274  50.005  1.00  0.00    -0.024 A 
ATOM      5  C   UNL     1      25.535   3.933  50.134  1.00  0.00    +0.047 C 
ATOM      6  C   UNL     1      23.732   2.159  50.682  1.00  0.00    +0.065 A 
ATOM      7  N   UNL     1      22.469   1.897  50.204  1.00  0.00    -0.357 N 
ATOM      8  H   UNL     1      21.884   1.140  50.529  1.00  0.00    +0.166 HD
ENDROOT
BRANCH   6   9
ATOM      9  C   UNL     1      24.324   1.341  51.697  1.00  0.00    +0.063 A 
ATOM     10  C   UNL     1      23.747   0.717  52.785  1.00  0.00    +0.033 A 
ATOM     11  N   UNL     1      25.664   1.058  51.745  1.00  0.00    -0.353 N 
ATOM     12  C   UNL     1      24.769   0.031  53.503  1.00  0.00    -0.025 A 
ATOM     13  C   UNL     1      25.963   0.264  52.831  1.00  0.00    +0.049 A 
ATOM     14  H   UNL     1      26.349   1.418  51.098  1.00  0.00    +0.167 HD
ATOM     15  C   UNL     1      24.569  -0.788  54.728  1.00  0.00    +0.047 C 
BRANCH  13  16
ATOM     16  C   UNL     1      27.331  -0.166  53.111  1.00  0.00    -0.002 A 
ATOM     17  C   UNL     1      27.712  -1.497  52.907  1.00  0.00    +0.010 A 
ATOM     18  C   UNL     1      28.277   0.745  53.595  1.00  0.00    +0.010 A 
ATOM     19  C   UNL     1      29.018  -1.911  53.182  1.00  0.00    +0.001 A 
ATOM     20  C   UNL     1      29.584   0.332  53.870  1.00  0.00    +0.001 A 
ATOM     21  C   UNL     1      29.952  -0.996  53.663  1.00  0.00    +0.000 A 
ENDBRANCH  13  16
ENDBRANCH   6   9
TORSDOF 2
ENDMDL
