REMARK SMILES Cc1cccc(-c2ccc(O)c([N+](=O)[O-])c2)c1
REMARK SMILES IDX 7 1 8 2 9 3 10 4 12 5 16 6 6 7 2 8 3 9 17 10 4 11 5 12 1 13
REMARK SMILES IDX 13 14 14 15 15 16 11 17
REMARK H PARENT 11 18
ROOT
ATOM      1  C   UNL     1       0.716  -0.418   0.036  1.00  0.00    -0.011 A 
ATOM      2  C   UNL     1       1.489  -1.560   0.302  1.00  0.00    +0.013 A 
ATOM      3  C   UNL     1       2.874  -1.476   0.473  1.00  0.00    +0.054 A 
ATOM      4  C   UNL     1       3.519  -0.245   0.381  1.00  0.00    +0.194 A 
ATOM      5  C   UNL     1       2.768   0.906   0.118  1.00  0.00    +0.311 A 
ATOM      6  C   UNL     1       1.375   0.820  -0.054  1.00  0.00    +0.098 A 
ENDROOT
BRANCH   1   7
ATOM      7  C   UNL     1      -0.742  -0.515  -0.145  1.00  0.00    -0.018 A 
ATOM      8  C   UNL     1      -3.011   0.209   0.435  1.00  0.00    -0.051 A 
ATOM      9  C   UNL     1      -3.533  -0.703  -0.487  1.00  0.00    +0.003 A 
ATOM     10  C   UNL     1      -1.621   0.286   0.607  1.00  0.00    +0.012 A 
ATOM     11  C   UNL     1      -2.680  -1.505  -1.242  1.00  0.00    +0.001 A 
ATOM     12  C   UNL     1      -1.297  -1.410  -1.073  1.00  0.00    +0.009 A 
ATOM     13  C   UNL     1      -3.927   1.049   1.276  1.00  0.00    +0.044 C 
ENDBRANCH   1   7
BRANCH   5  14
ATOM     14  N   UNL     1       3.410   2.218   0.017  1.00  0.00    +0.066 N 
ATOM     15  O   UNL     1       2.691   3.210  -0.167  1.00  0.00    -0.258 OA
ATOM     16  O   UNL     1       4.647   2.260   0.127  1.00  0.00    -0.258 OA
ENDBRANCH   5  14
BRANCH   4  17
ATOM     17  O   UNL     1       4.875  -0.284   0.564  1.00  0.00    -0.502 OA
ATOM     18  H   UNL     1       5.251   0.616   0.464  1.00  0.00    +0.293 HD
ENDBRANCH   4  17
TORSDOF 3
