MODEL 1
REMARK VINA RESULT:    -8.011      0.000      0.000
REMARK INTER + INTRA:         -14.239
REMARK INTER:                 -11.991
REMARK INTRA:                  -2.248
REMARK UNBOUND:                -2.248
REMARK SMILES CCN(CC/N=N/Nc1ccc2ncnc(-c3cccc(Cl)c3)c2c1)c1ccc(O)cc1
REMARK SMILES IDX 5 1 4 2 3 3 2 4 1 5 26 6 27 7 32 8 28 9 31 10 29 11 30 12
REMARK SMILES IDX 6 14 7 15 8 16 9 18 10 19 25 20 11 21 24 22 12 23 16 24
REMARK SMILES IDX 13 25 15 26 14 27 17 28 18 29 23 30 19 31 21 32 20 33 22 34
REMARK H PARENT 30 13 8 17
ROOT
ATOM      1  C   UNL     1      22.517   4.901  47.799  1.00  0.00    +0.190 C 
ENDROOT
BRANCH   1   2
ATOM      2  C   UNL     1      22.478   5.680  49.122  1.00  0.00    +0.142 C 
BRANCH   2   3
ATOM      3  N   UNL     1      23.554   5.267  50.040  1.00  0.00    -0.370 N 
BRANCH   3   4
ATOM      4  C   UNL     1      23.288   5.455  51.476  1.00  0.00    +0.113 C 
ATOM      5  C   UNL     1      22.138   4.560  51.921  1.00  0.00    +0.027 C 
ENDBRANCH   3   4
BRANCH   3   6
ATOM      6  C   UNL     1      24.883   5.194  49.624  1.00  0.00    +0.037 A 
ATOM      7  C   UNL     1      25.577   3.970  49.650  1.00  0.00    +0.030 A 
ATOM      8  C   UNL     1      25.591   6.305  49.133  1.00  0.00    +0.030 A 
ATOM      9  C   UNL     1      26.905   3.861  49.222  1.00  0.00    +0.048 A 
ATOM     10  C   UNL     1      26.923   6.208  48.705  1.00  0.00    +0.048 A 
ATOM     11  C   UNL     1      27.569   4.981  48.753  1.00  0.00    +0.115 A 
BRANCH  11  12
ATOM     12  O   UNL     1      28.861   4.837  48.348  1.00  0.00    -0.508 OA
ATOM     13  H   UNL     1      29.094   5.593  47.785  1.00  0.00    +0.293 HD
ENDBRANCH  11  12
ENDBRANCH   3   6
ENDBRANCH   2   3
ENDBRANCH   1   2
BRANCH   1  14
ATOM     14  N   UNL     1      21.734   3.660  47.919  1.00  0.00    -0.169 NA
ATOM     15  N   UNL     1      22.447   2.675  48.186  1.00  0.00    -0.075 NA
BRANCH  15  16
ATOM     16  N   UNL     1      21.603   1.631  48.261  1.00  0.00    -0.260 N 
ATOM     17  H   UNL     1      20.942   1.557  47.496  1.00  0.00    +0.192 HD
BRANCH  16  18
ATOM     18  C   UNL     1      21.168   1.186  49.520  1.00  0.00    +0.059 A 
ATOM     19  C   UNL     1      19.826   0.949  49.813  1.00  0.00    +0.030 A 
ATOM     20  C   UNL     1      22.088   1.077  50.568  1.00  0.00    +0.040 A 
ATOM     21  C   UNL     1      19.428   0.590  51.107  1.00  0.00    +0.031 A 
ATOM     22  C   UNL     1      21.691   0.692  51.878  1.00  0.00    +0.029 A 
ATOM     23  C   UNL     1      20.337   0.462  52.146  1.00  0.00    +0.074 A 
ATOM     24  C   UNL     1      22.546   0.524  52.984  1.00  0.00    +0.082 A 
ATOM     25  N   UNL     1      19.879   0.135  53.360  1.00  0.00    -0.236 NA
ATOM     26  N   UNL     1      22.098   0.211  54.221  1.00  0.00    -0.236 NA
ATOM     27  C   UNL     1      20.781   0.032  54.342  1.00  0.00    +0.223 A 
BRANCH  24  28
ATOM     28  C   UNL     1      24.012   0.651  52.906  1.00  0.00    +0.002 A 
ATOM     29  C   UNL     1      24.618   1.919  52.840  1.00  0.00    +0.010 A 
ATOM     30  C   UNL     1      24.844  -0.483  52.924  1.00  0.00    +0.030 A 
ATOM     31  C   UNL     1      26.007   2.052  52.765  1.00  0.00    +0.002 A 
ATOM     32  C   UNL     1      26.230  -0.345  52.849  1.00  0.00    +0.041 A 
ATOM     33  C   UNL     1      26.815   0.917  52.765  1.00  0.00    +0.020 A 
ATOM     34 Cl   UNL     1      27.225  -1.751  52.855  1.00  0.00    -0.084 Cl
ENDBRANCH  24  28
ENDBRANCH  16  18
ENDBRANCH  15  16
ENDBRANCH   1  14
TORSDOF 9
ENDMDL
MODEL 2
REMARK VINA RESULT:    -7.853      3.746      6.382
REMARK INTER + INTRA:         -14.003
REMARK INTER:                 -12.266
REMARK INTRA:                  -1.738
REMARK UNBOUND:                -2.248
REMARK SMILES CCN(CC/N=N/Nc1ccc2ncnc(-c3cccc(Cl)c3)c2c1)c1ccc(O)cc1
REMARK SMILES IDX 5 1 4 2 3 3 2 4 1 5 26 6 27 7 32 8 28 9 31 10 29 11 30 12
REMARK SMILES IDX 6 14 7 15 8 16 9 18 10 19 25 20 11 21 24 22 12 23 16 24
REMARK SMILES IDX 13 25 15 26 14 27 17 28 18 29 23 30 19 31 21 32 20 33 22 34
REMARK H PARENT 30 13 8 17
ROOT
ATOM      1  C   UNL     1      23.443  -1.149  54.943  1.00  0.00    +0.190 C 
ENDROOT
BRANCH   1   2
ATOM      2  C   UNL     1      23.793  -0.848  53.478  1.00  0.00    +0.142 C 
BRANCH   2   3
ATOM      3  N   UNL     1      24.838   0.183  53.359  1.00  0.00    -0.370 N 
BRANCH   3   4
ATOM      4  C   UNL     1      24.493   1.365  52.552  1.00  0.00    +0.113 C 
ATOM      5  C   UNL     1      23.056   1.789  52.826  1.00  0.00    +0.027 C 
ENDBRANCH   3   4
BRANCH   3   6
ATOM      6  C   UNL     1      26.188  -0.119  53.534  1.00  0.00    +0.037 A 
ATOM      7  C   UNL     1      26.788  -1.167  52.812  1.00  0.00    +0.030 A 
ATOM      8  C   UNL     1      27.027   0.605  54.399  1.00  0.00    +0.030 A 
ATOM      9  C   UNL     1      28.144  -1.484  52.952  1.00  0.00    +0.048 A 
ATOM     10  C   UNL     1      28.386   0.294  54.550  1.00  0.00    +0.048 A 
ATOM     11  C   UNL     1      28.933  -0.752  53.821  1.00  0.00    +0.115 A 
BRANCH  11  12
ATOM     12  O   UNL     1      30.248  -1.090  53.934  1.00  0.00    -0.508 OA
ATOM     13  H   UNL     1      30.315  -2.058  53.974  1.00  0.00    +0.293 HD
ENDBRANCH  11  12
ENDBRANCH   3   6
ENDBRANCH   2   3
ENDBRANCH   1   2
BRANCH   1  14
ATOM     14  N   UNL     1      22.011  -1.478  55.063  1.00  0.00    -0.169 NA
ATOM     15  N   UNL     1      21.362  -1.139  54.056  1.00  0.00    -0.075 NA
BRANCH  15  16
ATOM     16  N   UNL     1      20.092  -1.496  54.312  1.00  0.00    -0.260 N 
ATOM     17  H   UNL     1      19.983  -2.391  54.776  1.00  0.00    +0.192 HD
BRANCH  16  18
ATOM     18  C   UNL     1      19.076  -1.116  53.421  1.00  0.00    +0.059 A 
ATOM     19  C   UNL     1      17.787  -1.644  53.479  1.00  0.00    +0.030 A 
ATOM     20  C   UNL     1      19.378  -0.260  52.357  1.00  0.00    +0.040 A 
ATOM     21  C   UNL     1      16.829  -1.301  52.515  1.00  0.00    +0.031 A 
ATOM     22  C   UNL     1      18.403   0.108  51.389  1.00  0.00    +0.029 A 
ATOM     23  C   UNL     1      17.116  -0.438  51.468  1.00  0.00    +0.074 A 
ATOM     24  C   UNL     1      18.603   0.985  50.307  1.00  0.00    +0.082 A 
ATOM     25  N   UNL     1      16.155  -0.174  50.576  1.00  0.00    -0.236 NA
ATOM     26  N   UNL     1      17.649   1.250  49.386  1.00  0.00    -0.236 NA
ATOM     27  C   UNL     1      16.470   0.653  49.573  1.00  0.00    +0.223 A 
BRANCH  24  28
ATOM     28  C   UNL     1      19.860   1.719  50.076  1.00  0.00    +0.002 A 
ATOM     29  C   UNL     1      20.887   1.153  49.301  1.00  0.00    +0.010 A 
ATOM     30  C   UNL     1      20.056   3.011  50.598  1.00  0.00    +0.030 A 
ATOM     31  C   UNL     1      22.084   1.839  49.075  1.00  0.00    +0.002 A 
ATOM     32  C   UNL     1      21.253   3.692  50.371  1.00  0.00    +0.041 A 
ATOM     33  C   UNL     1      22.268   3.109  49.616  1.00  0.00    +0.020 A 
ATOM     34 Cl   UNL     1      21.474   5.265  51.036  1.00  0.00    -0.084 Cl
ENDBRANCH  24  28
ENDBRANCH  16  18
ENDBRANCH  15  16
ENDBRANCH   1  14
TORSDOF 9
ENDMDL
MODEL 3
REMARK VINA RESULT:    -7.620      3.042      5.373
REMARK INTER + INTRA:         -13.654
REMARK INTER:                 -11.304
REMARK INTRA:                  -2.350
REMARK UNBOUND:                -2.248
REMARK SMILES CCN(CC/N=N/Nc1ccc2ncnc(-c3cccc(Cl)c3)c2c1)c1ccc(O)cc1
REMARK SMILES IDX 5 1 4 2 3 3 2 4 1 5 26 6 27 7 32 8 28 9 31 10 29 11 30 12
REMARK SMILES IDX 6 14 7 15 8 16 9 18 10 19 25 20 11 21 24 22 12 23 16 24
REMARK SMILES IDX 13 25 15 26 14 27 17 28 18 29 23 30 19 31 21 32 20 33 22 34
REMARK H PARENT 30 13 8 17
ROOT
ATOM      1  C   UNL     1      17.661   0.627  51.065  1.00  0.00    +0.190 C 
ENDROOT
BRANCH   1   2
ATOM      2  C   UNL     1      18.748   1.526  50.458  1.00  0.00    +0.142 C 
BRANCH   2   3
ATOM      3  N   UNL     1      18.599   2.932  50.873  1.00  0.00    -0.370 N 
BRANCH   3   4
ATOM      4  C   UNL     1      17.329   3.582  50.511  1.00  0.00    +0.113 C 
ATOM      5  C   UNL     1      16.630   4.105  51.760  1.00  0.00    +0.027 C 
ENDBRANCH   3   4
BRANCH   3   6
ATOM      6  C   UNL     1      19.706   3.745  51.115  1.00  0.00    +0.037 A 
ATOM      7  C   UNL     1      19.954   4.876  50.317  1.00  0.00    +0.030 A 
ATOM      8  C   UNL     1      20.608   3.511  52.167  1.00  0.00    +0.030 A 
ATOM      9  C   UNL     1      21.046   5.721  50.545  1.00  0.00    +0.048 A 
ATOM     10  C   UNL     1      21.708   4.349  52.404  1.00  0.00    +0.048 A 
ATOM     11  C   UNL     1      21.916   5.451  51.587  1.00  0.00    +0.115 A 
BRANCH  11  12
ATOM     12  O   UNL     1      22.969   6.293  51.778  1.00  0.00    -0.508 OA
ATOM     13  H   UNL     1      23.778   5.849  51.476  1.00  0.00    +0.293 HD
ENDBRANCH  11  12
ENDBRANCH   3   6
ENDBRANCH   2   3
ENDBRANCH   1   2
BRANCH   1  14
ATOM     14  N   UNL     1      18.241  -0.234  52.110  1.00  0.00    -0.169 NA
ATOM     15  N   UNL     1      19.356   0.171  52.491  1.00  0.00    -0.075 NA
BRANCH  15  16
ATOM     16  N   UNL     1      19.753  -0.705  53.430  1.00  0.00    -0.260 N 
ATOM     17  H   UNL     1      19.092  -0.855  54.184  1.00  0.00    +0.192 HD
BRANCH  16  18
ATOM     18  C   UNL     1      21.116  -0.797  53.753  1.00  0.00    +0.059 A 
ATOM     19  C   UNL     1      21.591  -1.593  54.795  1.00  0.00    +0.030 A 
ATOM     20  C   UNL     1      22.038   0.018  53.089  1.00  0.00    +0.040 A 
ATOM     21  C   UNL     1      22.950  -1.587  55.138  1.00  0.00    +0.031 A 
ATOM     22  C   UNL     1      23.422   0.010  53.419  1.00  0.00    +0.029 A 
ATOM     23  C   UNL     1      23.872  -0.796  54.471  1.00  0.00    +0.074 A 
ATOM     24  C   UNL     1      24.426   0.768  52.787  1.00  0.00    +0.082 A 
ATOM     25  N   UNL     1      25.149  -0.830  54.869  1.00  0.00    -0.236 NA
ATOM     26  N   UNL     1      25.718   0.759  53.188  1.00  0.00    -0.236 NA
ATOM     27  C   UNL     1      26.010  -0.045  54.212  1.00  0.00    +0.223 A 
BRANCH  24  28
ATOM     28  C   UNL     1      24.181   1.630  51.618  1.00  0.00    +0.002 A 
ATOM     29  C   UNL     1      25.029   2.716  51.339  1.00  0.00    +0.010 A 
ATOM     30  C   UNL     1      23.114   1.376  50.737  1.00  0.00    +0.030 A 
ATOM     31  C   UNL     1      24.806   3.541  50.233  1.00  0.00    +0.002 A 
ATOM     32  C   UNL     1      22.894   2.203  49.635  1.00  0.00    +0.041 A 
ATOM     33  C   UNL     1      23.733   3.286  49.382  1.00  0.00    +0.020 A 
ATOM     34 Cl   UNL     1      21.571   1.881  48.581  1.00  0.00    -0.084 Cl
ENDBRANCH  24  28
ENDBRANCH  16  18
ENDBRANCH  15  16
ENDBRANCH   1  14
TORSDOF 9
ENDMDL
MODEL 4
REMARK VINA RESULT:    -7.586      2.004      3.159
REMARK INTER + INTRA:         -13.603
REMARK INTER:                 -12.364
REMARK INTRA:                  -1.239
REMARK UNBOUND:                -2.248
REMARK SMILES CCN(CC/N=N/Nc1ccc2ncnc(-c3cccc(Cl)c3)c2c1)c1ccc(O)cc1
REMARK SMILES IDX 5 1 4 2 3 3 2 4 1 5 26 6 27 7 32 8 28 9 31 10 29 11 30 12
REMARK SMILES IDX 6 14 7 15 8 16 9 18 10 19 25 20 11 21 24 22 12 23 16 24
REMARK SMILES IDX 13 25 15 26 14 27 17 28 18 29 23 30 19 31 21 32 20 33 22 34
REMARK H PARENT 30 13 8 17
ROOT
ATOM      1  C   UNL     1      22.864   5.604  50.133  1.00  0.00    +0.190 C 
ENDROOT
BRANCH   1   2
ATOM      2  C   UNL     1      23.542   6.254  48.918  1.00  0.00    +0.142 C 
BRANCH   2   3
ATOM      3  N   UNL     1      24.778   6.966  49.289  1.00  0.00    -0.370 N 
BRANCH   3   4
ATOM      4  C   UNL     1      24.649   8.415  49.514  1.00  0.00    +0.113 C 
ATOM      5  C   UNL     1      23.765   9.038  48.441  1.00  0.00    +0.027 C 
ENDBRANCH   3   4
BRANCH   3   6
ATOM      6  C   UNL     1      26.038   6.462  48.965  1.00  0.00    +0.037 A 
ATOM      7  C   UNL     1      27.073   7.325  48.562  1.00  0.00    +0.030 A 
ATOM      8  C   UNL     1      26.357   5.096  49.047  1.00  0.00    +0.030 A 
ATOM      9  C   UNL     1      28.353   6.853  48.247  1.00  0.00    +0.048 A 
ATOM     10  C   UNL     1      27.635   4.611  48.730  1.00  0.00    +0.048 A 
ATOM     11  C   UNL     1      28.624   5.499  48.332  1.00  0.00    +0.115 A 
BRANCH  11  12
ATOM     12  O   UNL     1      29.879   5.075  48.015  1.00  0.00    -0.508 OA
ATOM     13  H   UNL     1      30.192   4.484  48.719  1.00  0.00    +0.293 HD
ENDBRANCH  11  12
ENDBRANCH   3   6
ENDBRANCH   2   3
ENDBRANCH   1   2
BRANCH   1  14
ATOM     14  N   UNL     1      22.885   4.137  49.998  1.00  0.00    -0.169 NA
ATOM     15  N   UNL     1      23.593   3.593  50.866  1.00  0.00    -0.075 NA
BRANCH  15  16
ATOM     16  N   UNL     1      23.515   2.274  50.616  1.00  0.00    -0.260 N 
ATOM     17  H   UNL     1      23.139   2.031  49.707  1.00  0.00    +0.192 HD
BRANCH  16  18
ATOM     18  C   UNL     1      23.248   1.388  51.671  1.00  0.00    +0.059 A 
ATOM     19  C   UNL     1      21.954   1.087  52.093  1.00  0.00    +0.030 A 
ATOM     20  C   UNL     1      24.309   0.861  52.414  1.00  0.00    +0.040 A 
ATOM     21  C   UNL     1      21.736   0.265  53.207  1.00  0.00    +0.031 A 
ATOM     22  C   UNL     1      24.093   0.007  53.532  1.00  0.00    +0.029 A 
ATOM     23  C   UNL     1      22.784  -0.276  53.936  1.00  0.00    +0.074 A 
ATOM     24  C   UNL     1      25.095  -0.595  54.316  1.00  0.00    +0.082 A 
ATOM     25  N   UNL     1      22.497  -1.036  54.999  1.00  0.00    -0.236 NA
ATOM     26  N   UNL     1      24.823  -1.351  55.404  1.00  0.00    -0.236 NA
ATOM     27  C   UNL     1      23.531  -1.532  55.687  1.00  0.00    +0.223 A 
BRANCH  24  28
ATOM     28  C   UNL     1      26.535  -0.482  54.026  1.00  0.00    +0.002 A 
ATOM     29  C   UNL     1      27.201  -1.490  53.307  1.00  0.00    +0.010 A 
ATOM     30  C   UNL     1      27.274   0.644  54.433  1.00  0.00    +0.030 A 
ATOM     31  C   UNL     1      28.567  -1.394  53.026  1.00  0.00    +0.002 A 
ATOM     32  C   UNL     1      28.637   0.736  54.151  1.00  0.00    +0.041 A 
ATOM     33  C   UNL     1      29.287  -0.280  53.454  1.00  0.00    +0.020 A 
ATOM     34 Cl   UNL     1      29.522   2.117  54.675  1.00  0.00    -0.084 Cl
ENDBRANCH  24  28
ENDBRANCH  16  18
ENDBRANCH  15  16
ENDBRANCH   1  14
TORSDOF 9
ENDMDL
MODEL 5
REMARK VINA RESULT:    -7.435      3.363      7.505
REMARK INTER + INTRA:         -13.378
REMARK INTER:                 -11.570
REMARK INTRA:                  -1.808
REMARK UNBOUND:                -2.248
REMARK SMILES CCN(CC/N=N/Nc1ccc2ncnc(-c3cccc(Cl)c3)c2c1)c1ccc(O)cc1
REMARK SMILES IDX 5 1 4 2 3 3 2 4 1 5 26 6 27 7 32 8 28 9 31 10 29 11 30 12
REMARK SMILES IDX 6 14 7 15 8 16 9 18 10 19 25 20 11 21 24 22 12 23 16 24
REMARK SMILES IDX 13 25 15 26 14 27 17 28 18 29 23 30 19 31 21 32 20 33 22 34
REMARK H PARENT 30 13 8 17
ROOT
ATOM      1  C   UNL     1      27.334   1.944  53.336  1.00  0.00    +0.190 C 
ENDROOT
BRANCH   1   2
ATOM      2  C   UNL     1      25.828   1.798  53.600  1.00  0.00    +0.142 C 
BRANCH   2   3
ATOM      3  N   UNL     1      25.457   0.412  53.938  1.00  0.00    -0.370 N 
BRANCH   3   4
ATOM      4  C   UNL     1      26.510  -0.601  53.760  1.00  0.00    +0.113 C 
ATOM      5  C   UNL     1      26.392  -1.249  52.386  1.00  0.00    +0.027 C 
ENDBRANCH   3   4
BRANCH   3   6
ATOM      6  C   UNL     1      24.129  -0.013  53.927  1.00  0.00    +0.037 A 
ATOM      7  C   UNL     1      23.669  -0.954  54.866  1.00  0.00    +0.030 A 
ATOM      8  C   UNL     1      23.177   0.481  53.018  1.00  0.00    +0.030 A 
ATOM      9  C   UNL     1      22.338  -1.388  54.892  1.00  0.00    +0.048 A 
ATOM     10  C   UNL     1      21.842   0.051  53.033  1.00  0.00    +0.048 A 
ATOM     11  C   UNL     1      21.435  -0.882  53.975  1.00  0.00    +0.115 A 
BRANCH  11  12
ATOM     12  O   UNL     1      20.149  -1.329  54.028  1.00  0.00    -0.508 OA
ATOM     13  H   UNL     1      20.011  -1.770  54.882  1.00  0.00    +0.293 HD
ENDBRANCH  11  12
ENDBRANCH   3   6
ENDBRANCH   2   3
ENDBRANCH   1   2
BRANCH   1  14
ATOM     14  N   UNL     1      27.559   2.513  51.996  1.00  0.00    -0.169 NA
ATOM     15  N   UNL     1      26.522   2.527  51.308  1.00  0.00    -0.075 NA
BRANCH  15  16
ATOM     16  N   UNL     1      26.882   3.064  50.129  1.00  0.00    -0.260 N 
ATOM     17  H   UNL     1      27.880   3.179  49.996  1.00  0.00    +0.192 HD
BRANCH  16  18
ATOM     18  C   UNL     1      26.048   4.017  49.524  1.00  0.00    +0.059 A 
ATOM     19  C   UNL     1      26.519   5.244  49.058  1.00  0.00    +0.030 A 
ATOM     20  C   UNL     1      24.668   3.794  49.476  1.00  0.00    +0.040 A 
ATOM     21  C   UNL     1      25.637   6.201  48.540  1.00  0.00    +0.031 A 
ATOM     22  C   UNL     1      23.770   4.754  48.930  1.00  0.00    +0.029 A 
ATOM     23  C   UNL     1      24.270   5.979  48.473  1.00  0.00    +0.074 A 
ATOM     24  C   UNL     1      22.376   4.605  48.810  1.00  0.00    +0.082 A 
ATOM     25  N   UNL     1      23.488   6.948  47.983  1.00  0.00    -0.236 NA
ATOM     26  N   UNL     1      21.569   5.581  48.334  1.00  0.00    -0.236 NA
ATOM     27  C   UNL     1      22.173   6.705  47.943  1.00  0.00    +0.223 A 
BRANCH  24  28
ATOM     28  C   UNL     1      21.655   3.372  49.169  1.00  0.00    +0.002 A 
ATOM     29  C   UNL     1      21.930   2.163  48.506  1.00  0.00    +0.010 A 
ATOM     30  C   UNL     1      20.695   3.362  50.198  1.00  0.00    +0.030 A 
ATOM     31  C   UNL     1      21.252   0.987  48.838  1.00  0.00    +0.002 A 
ATOM     32  C   UNL     1      20.020   2.186  50.525  1.00  0.00    +0.041 A 
ATOM     33  C   UNL     1      20.291   1.000  49.847  1.00  0.00    +0.020 A 
ATOM     34 Cl   UNL     1      18.838   2.205  51.777  1.00  0.00    -0.084 Cl
ENDBRANCH  24  28
ENDBRANCH  16  18
ENDBRANCH  15  16
ENDBRANCH   1  14
TORSDOF 9
ENDMDL
MODEL 6
REMARK VINA RESULT:    -7.321      2.899      4.795
REMARK INTER + INTRA:         -13.207
REMARK INTER:                 -11.247
REMARK INTRA:                  -1.960
REMARK UNBOUND:                -2.248
REMARK SMILES CCN(CC/N=N/Nc1ccc2ncnc(-c3cccc(Cl)c3)c2c1)c1ccc(O)cc1
REMARK SMILES IDX 5 1 4 2 3 3 2 4 1 5 26 6 27 7 32 8 28 9 31 10 29 11 30 12
REMARK SMILES IDX 6 14 7 15 8 16 9 18 10 19 25 20 11 21 24 22 12 23 16 24
REMARK SMILES IDX 13 25 15 26 14 27 17 28 18 29 23 30 19 31 21 32 20 33 22 34
REMARK H PARENT 30 13 8 17
ROOT
ATOM      1  C   UNL     1      26.666   3.463  49.976  1.00  0.00    +0.190 C 
ENDROOT
BRANCH   1   2
ATOM      2  C   UNL     1      25.173   3.488  49.616  1.00  0.00    +0.142 C 
BRANCH   2   3
ATOM      3  N   UNL     1      24.465   4.604  50.267  1.00  0.00    -0.370 N 
BRANCH   3   4
ATOM      4  C   UNL     1      23.281   4.242  51.065  1.00  0.00    +0.113 C 
ATOM      5  C   UNL     1      23.666   4.059  52.527  1.00  0.00    +0.027 C 
ENDBRANCH   3   4
BRANCH   3   6
ATOM      6  C   UNL     1      24.557   5.910  49.787  1.00  0.00    +0.037 A 
ATOM      7  C   UNL     1      24.970   6.957  50.630  1.00  0.00    +0.030 A 
ATOM      8  C   UNL     1      24.279   6.253  48.452  1.00  0.00    +0.030 A 
ATOM      9  C   UNL     1      25.090   8.275  50.173  1.00  0.00    +0.048 A 
ATOM     10  C   UNL     1      24.392   7.570  47.985  1.00  0.00    +0.048 A 
ATOM     11  C   UNL     1      24.799   8.572  48.854  1.00  0.00    +0.115 A 
BRANCH  11  12
ATOM     12  O   UNL     1      24.923   9.865  48.445  1.00  0.00    -0.508 OA
ATOM     13  H   UNL     1      24.446  10.434  49.071  1.00  0.00    +0.293 HD
ENDBRANCH  11  12
ENDBRANCH   3   6
ENDBRANCH   2   3
ENDBRANCH   1   2
BRANCH   1  14
ATOM     14  N   UNL     1      26.864   2.769  51.260  1.00  0.00    -0.169 NA
ATOM     15  N   UNL     1      26.335   1.642  51.276  1.00  0.00    -0.075 NA
BRANCH  15  16
ATOM     16  N   UNL     1      26.595   1.141  52.495  1.00  0.00    -0.260 N 
ATOM     17  H   UNL     1      27.533   0.775  52.618  1.00  0.00    +0.192 HD
BRANCH  16  18
ATOM     18  C   UNL     1      25.569   0.507  53.213  1.00  0.00    +0.059 A 
ATOM     19  C   UNL     1      25.811  -0.274  54.343  1.00  0.00    +0.030 A 
ATOM     20  C   UNL     1      24.258   0.556  52.729  1.00  0.00    +0.040 A 
ATOM     21  C   UNL     1      24.766  -0.959  54.977  1.00  0.00    +0.031 A 
ATOM     22  C   UNL     1      23.190  -0.121  53.382  1.00  0.00    +0.029 A 
ATOM     23  C   UNL     1      23.461  -0.900  54.513  1.00  0.00    +0.074 A 
ATOM     24  C   UNL     1      21.838  -0.103  52.990  1.00  0.00    +0.082 A 
ATOM     25  N   UNL     1      22.520  -1.597  55.160  1.00  0.00    -0.236 NA
ATOM     26  N   UNL     1      20.878  -0.816  53.622  1.00  0.00    -0.236 NA
ATOM     27  C   UNL     1      21.274  -1.527  54.679  1.00  0.00    +0.223 A 
BRANCH  24  28
ATOM     28  C   UNL     1      21.327   0.705  51.869  1.00  0.00    +0.002 A 
ATOM     29  C   UNL     1      21.642   0.366  50.541  1.00  0.00    +0.010 A 
ATOM     30  C   UNL     1      20.490   1.813  52.091  1.00  0.00    +0.030 A 
ATOM     31  C   UNL     1      21.163   1.125  49.469  1.00  0.00    +0.002 A 
ATOM     32  C   UNL     1      20.015   2.569  51.019  1.00  0.00    +0.041 A 
ATOM     33  C   UNL     1      20.352   2.232  49.709  1.00  0.00    +0.020 A 
ATOM     34 Cl   UNL     1      19.007   3.932  51.320  1.00  0.00    -0.084 Cl
ENDBRANCH  24  28
ENDBRANCH  16  18
ENDBRANCH  15  16
ENDBRANCH   1  14
TORSDOF 9
ENDMDL
MODEL 7
REMARK VINA RESULT:    -7.224      2.962      5.020
REMARK INTER + INTRA:         -13.062
REMARK INTER:                 -10.977
REMARK INTRA:                  -2.085
REMARK UNBOUND:                -2.248
REMARK SMILES CCN(CC/N=N/Nc1ccc2ncnc(-c3cccc(Cl)c3)c2c1)c1ccc(O)cc1
REMARK SMILES IDX 5 1 4 2 3 3 2 4 1 5 26 6 27 7 32 8 28 9 31 10 29 11 30 12
REMARK SMILES IDX 6 14 7 15 8 16 9 18 10 19 25 20 11 21 24 22 12 23 16 24
REMARK SMILES IDX 13 25 15 26 14 27 17 28 18 29 23 30 19 31 21 32 20 33 22 34
REMARK H PARENT 30 13 8 17
ROOT
ATOM      1  C   UNL     1      25.804   3.810  49.773  1.00  0.00    +0.190 C 
ENDROOT
BRANCH   1   2
ATOM      2  C   UNL     1      24.894   5.018  50.037  1.00  0.00    +0.142 C 
BRANCH   2   3
ATOM      3  N   UNL     1      23.479   4.717  49.758  1.00  0.00    -0.370 N 
BRANCH   3   4
ATOM      4  C   UNL     1      22.742   4.025  50.829  1.00  0.00    +0.113 C 
ATOM      5  C   UNL     1      23.007   4.696  52.171  1.00  0.00    +0.027 C 
ENDBRANCH   3   4
BRANCH   3   6
ATOM      6  C   UNL     1      22.996   4.609  48.455  1.00  0.00    +0.037 A 
ATOM      7  C   UNL     1      22.591   3.364  47.940  1.00  0.00    +0.030 A 
ATOM      8  C   UNL     1      22.856   5.715  47.599  1.00  0.00    +0.030 A 
ATOM      9  C   UNL     1      22.086   3.226  46.642  1.00  0.00    +0.048 A 
ATOM     10  C   UNL     1      22.355   5.588  46.295  1.00  0.00    +0.048 A 
ATOM     11  C   UNL     1      21.972   4.339  45.829  1.00  0.00    +0.115 A 
BRANCH  11  12
ATOM     12  O   UNL     1      21.479   4.166  44.571  1.00  0.00    -0.508 OA
ATOM     13  H   UNL     1      22.175   3.776  44.018  1.00  0.00    +0.293 HD
ENDBRANCH  11  12
ENDBRANCH   3   6
ENDBRANCH   2   3
ENDBRANCH   1   2
BRANCH   1  14
ATOM     14  N   UNL     1      26.150   3.150  51.044  1.00  0.00    -0.169 NA
ATOM     15  N   UNL     1      25.872   1.936  51.037  1.00  0.00    -0.075 NA
BRANCH  15  16
ATOM     16  N   UNL     1      26.237   1.479  52.248  1.00  0.00    -0.260 N 
ATOM     17  H   UNL     1      27.213   1.216  52.331  1.00  0.00    +0.192 HD
BRANCH  16  18
ATOM     18  C   UNL     1      25.316   0.748  53.014  1.00  0.00    +0.059 A 
ATOM     19  C   UNL     1      25.695  -0.035  54.104  1.00  0.00    +0.030 A 
ATOM     20  C   UNL     1      23.975   0.700  52.619  1.00  0.00    +0.040 A 
ATOM     21  C   UNL     1      24.754  -0.817  54.787  1.00  0.00    +0.031 A 
ATOM     22  C   UNL     1      23.012  -0.075  53.323  1.00  0.00    +0.029 A 
ATOM     23  C   UNL     1      23.420  -0.854  54.412  1.00  0.00    +0.074 A 
ATOM     24  C   UNL     1      21.640  -0.160  53.021  1.00  0.00    +0.082 A 
ATOM     25  N   UNL     1      22.585  -1.640  55.101  1.00  0.00    -0.236 NA
ATOM     26  N   UNL     1      20.785  -0.962  53.696  1.00  0.00    -0.236 NA
ATOM     27  C   UNL     1      21.307  -1.661  54.705  1.00  0.00    +0.223 A 
BRANCH  24  28
ATOM     28  C   UNL     1      20.990   0.628  51.959  1.00  0.00    +0.002 A 
ATOM     29  C   UNL     1      21.211   0.322  50.604  1.00  0.00    +0.010 A 
ATOM     30  C   UNL     1      20.113   1.683  52.267  1.00  0.00    +0.030 A 
ATOM     31  C   UNL     1      20.602   1.061  49.588  1.00  0.00    +0.002 A 
ATOM     32  C   UNL     1      19.507   2.420  51.248  1.00  0.00    +0.041 A 
ATOM     33  C   UNL     1      19.751   2.116  49.911  1.00  0.00    +0.020 A 
ATOM     34 Cl   UNL     1      18.451   3.719  51.653  1.00  0.00    -0.084 Cl
ENDBRANCH  24  28
ENDBRANCH  16  18
ENDBRANCH  15  16
ENDBRANCH   1  14
TORSDOF 9
ENDMDL
MODEL 8
REMARK VINA RESULT:    -7.154      2.921      5.153
REMARK INTER + INTRA:         -12.957
REMARK INTER:                 -10.929
REMARK INTRA:                  -2.028
REMARK UNBOUND:                -2.248
REMARK SMILES CCN(CC/N=N/Nc1ccc2ncnc(-c3cccc(Cl)c3)c2c1)c1ccc(O)cc1
REMARK SMILES IDX 5 1 4 2 3 3 2 4 1 5 26 6 27 7 32 8 28 9 31 10 29 11 30 12
REMARK SMILES IDX 6 14 7 15 8 16 9 18 10 19 25 20 11 21 24 22 12 23 16 24
REMARK SMILES IDX 13 25 15 26 14 27 17 28 18 29 23 30 19 31 21 32 20 33 22 34
REMARK H PARENT 30 13 8 17
ROOT
ATOM      1  C   UNL     1      26.538   3.363  49.881  1.00  0.00    +0.190 C 
ENDROOT
BRANCH   1   2
ATOM      2  C   UNL     1      25.044   3.535  49.567  1.00  0.00    +0.142 C 
BRANCH   2   3
ATOM      3  N   UNL     1      24.687   4.944  49.328  1.00  0.00    -0.370 N 
BRANCH   3   4
ATOM      4  C   UNL     1      25.755   5.931  49.559  1.00  0.00    +0.113 C 
ATOM      5  C   UNL     1      25.918   6.828  48.339  1.00  0.00    +0.027 C 
ENDBRANCH   3   4
BRANCH   3   6
ATOM      6  C   UNL     1      23.365   5.384  49.384  1.00  0.00    +0.037 A 
ATOM      7  C   UNL     1      22.833   5.909  50.576  1.00  0.00    +0.030 A 
ATOM      8  C   UNL     1      22.506   5.361  48.272  1.00  0.00    +0.030 A 
ATOM      9  C   UNL     1      21.516   6.374  50.660  1.00  0.00    +0.048 A 
ATOM     10  C   UNL     1      21.183   5.822  48.345  1.00  0.00    +0.048 A 
ATOM     11  C   UNL     1      20.700   6.327  49.544  1.00  0.00    +0.115 A 
BRANCH  11  12
ATOM     12  O   UNL     1      19.423   6.786  49.663  1.00  0.00    -0.508 OA
ATOM     13  H   UNL     1      19.422   7.538  50.276  1.00  0.00    +0.293 HD
ENDBRANCH  11  12
ENDBRANCH   3   6
ENDBRANCH   2   3
ENDBRANCH   1   2
BRANCH   1  14
ATOM     14  N   UNL     1      26.709   2.810  51.236  1.00  0.00    -0.169 NA
ATOM     15  N   UNL     1      26.518   1.580  51.272  1.00  0.00    -0.075 NA
BRANCH  15  16
ATOM     16  N   UNL     1      26.705   1.226  52.556  1.00  0.00    -0.260 N 
ATOM     17  H   UNL     1      27.654   0.960  52.793  1.00  0.00    +0.192 HD
BRANCH  16  18
ATOM     18  C   UNL     1      25.672   0.577  53.249  1.00  0.00    +0.059 A 
ATOM     19  C   UNL     1      25.908  -0.284  54.320  1.00  0.00    +0.030 A 
ATOM     20  C   UNL     1      24.355   0.697  52.794  1.00  0.00    +0.040 A 
ATOM     21  C   UNL     1      24.853  -0.979  54.927  1.00  0.00    +0.031 A 
ATOM     22  C   UNL     1      23.278   0.011  53.421  1.00  0.00    +0.029 A 
ATOM     23  C   UNL     1      23.543  -0.850  54.493  1.00  0.00    +0.074 A 
ATOM     24  C   UNL     1      21.921   0.094  53.056  1.00  0.00    +0.082 A 
ATOM     25  N   UNL     1      22.592  -1.561  55.109  1.00  0.00    -0.236 NA
ATOM     26  N   UNL     1      20.950  -0.630  53.657  1.00  0.00    -0.236 NA
ATOM     27  C   UNL     1      21.341  -1.422  54.657  1.00  0.00    +0.223 A 
BRANCH  24  28
ATOM     28  C   UNL     1      21.416   0.990  52.000  1.00  0.00    +0.002 A 
ATOM     29  C   UNL     1      20.450   1.968  52.293  1.00  0.00    +0.010 A 
ATOM     30  C   UNL     1      21.903   0.910  50.683  1.00  0.00    +0.030 A 
ATOM     31  C   UNL     1      19.963   2.822  51.300  1.00  0.00    +0.002 A 
ATOM     32  C   UNL     1      21.414   1.764  49.694  1.00  0.00    +0.041 A 
ATOM     33  C   UNL     1      20.443   2.717  49.996  1.00  0.00    +0.020 A 
ATOM     34 Cl   UNL     1      22.014   1.634  48.085  1.00  0.00    -0.084 Cl
ENDBRANCH  24  28
ENDBRANCH  16  18
ENDBRANCH  15  16
ENDBRANCH   1  14
TORSDOF 9
ENDMDL
MODEL 9
REMARK VINA RESULT:    -7.099      3.003      5.019
REMARK INTER + INTRA:         -12.874
REMARK INTER:                 -10.422
REMARK INTRA:                  -2.451
REMARK UNBOUND:                -2.248
REMARK SMILES CCN(CC/N=N/Nc1ccc2ncnc(-c3cccc(Cl)c3)c2c1)c1ccc(O)cc1
REMARK SMILES IDX 5 1 4 2 3 3 2 4 1 5 26 6 27 7 32 8 28 9 31 10 29 11 30 12
REMARK SMILES IDX 6 14 7 15 8 16 9 18 10 19 25 20 11 21 24 22 12 23 16 24
REMARK SMILES IDX 13 25 15 26 14 27 17 28 18 29 23 30 19 31 21 32 20 33 22 34
REMARK H PARENT 30 13 8 17
ROOT
ATOM      1  C   UNL     1      26.731   4.706  49.040  1.00  0.00    +0.190 C 
ENDROOT
BRANCH   1   2
ATOM      2  C   UNL     1      25.764   5.461  49.964  1.00  0.00    +0.142 C 
BRANCH   2   3
ATOM      3  N   UNL     1      24.654   6.079  49.218  1.00  0.00    -0.370 N 
BRANCH   3   4
ATOM      4  C   UNL     1      24.349   7.480  49.553  1.00  0.00    +0.113 C 
ATOM      5  C   UNL     1      23.582   7.552  50.867  1.00  0.00    +0.027 C 
ENDBRANCH   3   4
BRANCH   3   6
ATOM      6  C   UNL     1      23.648   5.311  48.633  1.00  0.00    +0.037 A 
ATOM      7  C   UNL     1      22.774   5.874  47.685  1.00  0.00    +0.030 A 
ATOM      8  C   UNL     1      23.463   3.948  48.923  1.00  0.00    +0.030 A 
ATOM      9  C   UNL     1      21.766   5.124  47.067  1.00  0.00    +0.048 A 
ATOM     10  C   UNL     1      22.454   3.188  48.313  1.00  0.00    +0.048 A 
ATOM     11  C   UNL     1      21.613   3.787  47.387  1.00  0.00    +0.115 A 
BRANCH  11  12
ATOM     12  O   UNL     1      20.619   3.090  46.769  1.00  0.00    -0.508 OA
ATOM     13  H   UNL     1      20.873   2.945  45.843  1.00  0.00    +0.293 HD
ENDBRANCH  11  12
ENDBRANCH   3   6
ENDBRANCH   2   3
ENDBRANCH   1   2
BRANCH   1  14
ATOM     14  N   UNL     1      26.928   3.330  49.530  1.00  0.00    -0.169 NA
ATOM     15  N   UNL     1      26.473   3.168  50.677  1.00  0.00    -0.075 NA
BRANCH  15  16
ATOM     16  N   UNL     1      26.725   1.884  50.984  1.00  0.00    -0.260 N 
ATOM     17  H   UNL     1      27.103   1.327  50.226  1.00  0.00    +0.192 HD
BRANCH  16  18
ATOM     18  C   UNL     1      25.901   1.221  51.907  1.00  0.00    +0.059 A 
ATOM     19  C   UNL     1      26.365   0.197  52.732  1.00  0.00    +0.030 A 
ATOM     20  C   UNL     1      24.532   1.506  51.938  1.00  0.00    +0.040 A 
ATOM     21  C   UNL     1      25.487  -0.496  53.576  1.00  0.00    +0.031 A 
ATOM     22  C   UNL     1      23.641   0.820  52.809  1.00  0.00    +0.029 A 
ATOM     23  C   UNL     1      24.132  -0.206  53.625  1.00  0.00    +0.074 A 
ATOM     24  C   UNL     1      22.260   1.060  52.934  1.00  0.00    +0.082 A 
ATOM     25  N   UNL     1      23.354  -0.924  54.442  1.00  0.00    -0.236 NA
ATOM     26  N   UNL     1      21.455   0.332  53.741  1.00  0.00    -0.236 NA
ATOM     27  C   UNL     1      22.050  -0.625  54.456  1.00  0.00    +0.223 A 
BRANCH  24  28
ATOM     28  C   UNL     1      21.553   2.136  52.217  1.00  0.00    +0.002 A 
ATOM     29  C   UNL     1      21.901   3.483  52.423  1.00  0.00    +0.010 A 
ATOM     30  C   UNL     1      20.534   1.847  51.291  1.00  0.00    +0.030 A 
ATOM     31  C   UNL     1      21.238   4.511  51.749  1.00  0.00    +0.002 A 
ATOM     32  C   UNL     1      19.873   2.878  50.622  1.00  0.00    +0.041 A 
ATOM     33  C   UNL     1      20.217   4.208  50.850  1.00  0.00    +0.020 A 
ATOM     34 Cl   UNL     1      18.617   2.498  49.506  1.00  0.00    -0.084 Cl
ENDBRANCH  24  28
ENDBRANCH  16  18
ENDBRANCH  15  16
ENDBRANCH   1  14
TORSDOF 9
ENDMDL
