REMARK SMILES C[N+](C)(C)C[C@@H](O)COc1ccc(OC(F)(F)F)cn1
REMARK SMILES IDX 8 1 6 2 5 3 2 4 1 5 3 6 4 7 7 8 9 10 10 11 11 12 20 13 12 14
REMARK SMILES IDX 19 15 13 16 14 17 15 18 16 19 17 20 18 21
REMARK H PARENT 7 9
ROOT
ATOM      1  C   UNL     1       0.028  -1.034   0.202  1.00  0.00    +0.269 C 
ENDROOT
BRANCH   1   2
ATOM      2  C   UNL     1      -1.483  -0.955   0.471  1.00  0.00    +0.206 C 
BRANCH   2   3
ATOM      3  C   UNL     1      -2.093   0.223  -0.328  1.00  0.00    +0.299 C 
BRANCH   3   4
ATOM      4  N   UNL     1      -3.595   0.516  -0.036  1.00  0.00    -0.329 N 
ATOM      5  C   UNL     1      -3.804   0.946   1.406  1.00  0.00    +0.334 C 
ATOM      6  C   UNL     1      -4.473  -0.695  -0.342  1.00  0.00    +0.334 C 
ATOM      7  C   UNL     1      -4.025   1.660  -0.955  1.00  0.00    +0.334 C 
ENDBRANCH   3   4
ENDBRANCH   2   3
BRANCH   2   8
ATOM      8  O   UNL     1      -2.108  -2.184   0.087  1.00  0.00    -0.384 OA
ATOM      9  H   UNL     1      -1.630  -2.918   0.521  1.00  0.00    +0.211 HD
ENDBRANCH   2   8
ENDBRANCH   1   2
BRANCH   1  10
ATOM     10  O   UNL     1       0.644   0.159   0.690  1.00  0.00    -0.475 OA
BRANCH  10  11
ATOM     11  C   UNL     1       2.012   0.169   0.491  1.00  0.00    +0.213 A 
ATOM     12  C   UNL     1       2.712   1.233   1.030  1.00  0.00    +0.072 A 
ATOM     13  N   UNL     1       2.587  -0.823  -0.216  1.00  0.00    -0.218 NA
ATOM     14  C   UNL     1       4.092   1.277   0.838  1.00  0.00    +0.054 A 
ATOM     15  C   UNL     1       3.932  -0.753  -0.386  1.00  0.00    +0.161 A 
ATOM     16  C   UNL     1       4.730   0.269   0.117  1.00  0.00    +0.148 A 
BRANCH  16  17
ATOM     17  O   UNL     1       6.079   0.411  -0.010  1.00  0.00    -0.404 OA
BRANCH  17  18
ATOM     18  C   UNL     1       6.772  -0.591  -0.738  1.00  0.00    +0.573 C 
ATOM     19  F   UNL     1       6.322  -0.651  -2.009  1.00  0.00    -0.132 F 
ATOM     20  F   UNL     1       8.085  -0.288  -0.760  1.00  0.00    -0.132 F 
ATOM     21  F   UNL     1       6.618  -1.797  -0.152  1.00  0.00    -0.132 F 
ENDBRANCH  17  18
ENDBRANCH  16  17
ENDBRANCH  10  11
ENDBRANCH   1  10
TORSDOF 8
