MODEL 1
REMARK VINA RESULT:    -8.383      0.000      0.000
REMARK INTER + INTRA:         -11.066
REMARK INTER:                 -10.098
REMARK INTRA:                  -0.968
REMARK UNBOUND:                -0.968
REMARK SMILES Cc1cc(C)c(-c2[nH]c(-c3ccc(O)c([N+](=O)[O-])c3)cc2C)[nH]1
REMARK SMILES IDX 10 1 11 2 12 3 13 4 15 5 19 6 9 7 7 8 8 9 21 10 20 11 22 13
REMARK SMILES IDX 6 14 2 15 3 16 23 17 4 18 1 19 5 21 16 22 17 23 18 24 14 25
REMARK H PARENT 8 12 23 20 14 26
ROOT
ATOM      1  C   UNL     1      24.471   0.863  52.740  1.00  0.00    +0.005 A 
ATOM      2  C   UNL     1      23.377   0.099  53.179  1.00  0.00    +0.014 A 
ATOM      3  C   UNL     1      23.479  -0.754  54.286  1.00  0.00    +0.054 A 
ATOM      4  C   UNL     1      24.686  -0.853  54.973  1.00  0.00    +0.194 A 
ATOM      5  C   UNL     1      25.770  -0.093  54.542  1.00  0.00    +0.311 A 
ATOM      6  C   UNL     1      25.683   0.758  53.431  1.00  0.00    +0.100 A 
ENDROOT
BRANCH   1   7
ATOM      7  C   UNL     1      24.337   1.740  51.576  1.00  0.00    +0.046 A 
ATOM      8  C   UNL     1      24.897   3.365  50.096  1.00  0.00    +0.066 A 
ATOM      9  N   UNL     1      25.283   2.674  51.219  1.00  0.00    -0.353 N 
ATOM     10  C   UNL     1      23.666   2.868  49.703  1.00  0.00    -0.023 A 
ATOM     11  C   UNL     1      23.318   1.854  50.645  1.00  0.00    +0.032 A 
ATOM     12  H   UNL     1      26.132   2.868  51.729  1.00  0.00    +0.167 HD
ATOM     13  C   UNL     1      22.851   3.271  48.527  1.00  0.00    +0.047 C 
BRANCH   8  14
ATOM     14  C   UNL     1      25.709   4.402  49.540  1.00  0.00    +0.065 A 
ATOM     15  C   UNL     1      27.553   5.313  48.617  1.00  0.00    +0.012 A 
ATOM     16  C   UNL     1      26.594   6.300  48.699  1.00  0.00    +0.026 A 
ATOM     17  N   UNL     1      27.001   4.171  49.138  1.00  0.00    -0.357 N 
ATOM     18  C   UNL     1      25.424   5.736  49.286  1.00  0.00    -0.024 A 
ATOM     19  C   UNL     1      28.941   5.344  48.096  1.00  0.00    +0.064 C 
ATOM     20  H   UNL     1      27.464   3.274  49.197  1.00  0.00    +0.166 HD
ATOM     21  C   UNL     1      24.164   6.472  49.574  1.00  0.00    +0.047 C 
ENDBRANCH   8  14
ENDBRANCH   1   7
BRANCH   5  22
ATOM     22  N   UNL     1      27.036  -0.165  55.241  1.00  0.00    +0.066 N 
ATOM     23  O   UNL     1      28.027  -0.527  54.593  1.00  0.00    -0.258 OA
ATOM     24  O   UNL     1      27.018   0.074  56.457  1.00  0.00    -0.258 OA
ENDBRANCH   5  22
BRANCH   4  25
ATOM     25  O   UNL     1      24.799  -1.702  56.033  1.00  0.00    -0.502 OA
ATOM     26  H   UNL     1      25.180  -2.549  55.742  1.00  0.00    +0.293 HD
ENDBRANCH   4  25
TORSDOF 4
ENDMDL
MODEL 2
REMARK VINA RESULT:    -8.110      1.492      2.346
REMARK INTER + INTRA:         -10.737
REMARK INTER:                  -9.900
REMARK INTRA:                  -0.838
REMARK UNBOUND:                -0.968
REMARK SMILES Cc1cc(C)c(-c2[nH]c(-c3ccc(O)c([N+](=O)[O-])c3)cc2C)[nH]1
REMARK SMILES IDX 10 1 11 2 12 3 13 4 15 5 19 6 9 7 7 8 8 9 21 10 20 11 22 13
REMARK SMILES IDX 6 14 2 15 3 16 23 17 4 18 1 19 5 21 16 22 17 23 18 24 14 25
REMARK H PARENT 8 12 23 20 14 26
ROOT
ATOM      1  C   UNL     1      24.335   0.917  52.487  1.00  0.00    +0.005 A 
ATOM      2  C   UNL     1      25.593   0.528  52.977  1.00  0.00    +0.014 A 
ATOM      3  C   UNL     1      25.715  -0.337  54.073  1.00  0.00    +0.054 A 
ATOM      4  C   UNL     1      24.571  -0.825  54.698  1.00  0.00    +0.194 A 
ATOM      5  C   UNL     1      23.323  -0.443  54.212  1.00  0.00    +0.311 A 
ATOM      6  C   UNL     1      23.188   0.426  53.120  1.00  0.00    +0.100 A 
ENDROOT
BRANCH   1   7
ATOM      7  C   UNL     1      24.238   1.826  51.344  1.00  0.00    +0.046 A 
ATOM      8  C   UNL     1      24.861   3.469  49.910  1.00  0.00    +0.066 A 
ATOM      9  N   UNL     1      25.215   2.741  51.020  1.00  0.00    -0.353 N 
ATOM     10  C   UNL     1      23.621   3.016  49.492  1.00  0.00    -0.023 A 
ATOM     11  C   UNL     1      23.235   1.990  50.405  1.00  0.00    +0.032 A 
ATOM     12  H   UNL     1      26.062   2.898  51.544  1.00  0.00    +0.167 HD
ATOM     13  C   UNL     1      22.832   3.470  48.317  1.00  0.00    +0.047 C 
BRANCH   8  14
ATOM     14  C   UNL     1      25.708   4.496  49.388  1.00  0.00    +0.065 A 
ATOM     15  C   UNL     1      27.605   5.388  48.557  1.00  0.00    +0.012 A 
ATOM     16  C   UNL     1      26.649   6.380  48.576  1.00  0.00    +0.026 A 
ATOM     17  N   UNL     1      27.019   4.254  49.059  1.00  0.00    -0.357 N 
ATOM     18  C   UNL     1      25.445   5.828  49.105  1.00  0.00    -0.024 A 
ATOM     19  C   UNL     1      29.019   5.406  48.113  1.00  0.00    +0.064 C 
ATOM     20  H   UNL     1      27.472   3.355  49.154  1.00  0.00    +0.166 HD
ATOM     21  C   UNL     1      24.176   6.574  49.316  1.00  0.00    +0.047 C 
ENDBRANCH   8  14
ENDBRANCH   1   7
BRANCH   5  22
ATOM     22  N   UNL     1      22.114  -0.943  54.832  1.00  0.00    +0.066 N 
ATOM     23  O   UNL     1      21.221  -0.123  55.086  1.00  0.00    -0.258 OA
ATOM     24  O   UNL     1      22.093  -2.147  55.127  1.00  0.00    -0.258 OA
ENDBRANCH   5  22
BRANCH   4  25
ATOM     25  O   UNL     1      24.683  -1.643  55.782  1.00  0.00    -0.502 OA
ATOM     26  H   UNL     1      23.986  -1.436  56.429  1.00  0.00    +0.293 HD
ENDBRANCH   4  25
TORSDOF 4
ENDMDL
MODEL 3
REMARK VINA RESULT:    -8.068      1.590      2.270
REMARK INTER + INTRA:         -10.687
REMARK INTER:                  -9.814
REMARK INTRA:                  -0.873
REMARK UNBOUND:                -0.968
REMARK SMILES Cc1cc(C)c(-c2[nH]c(-c3ccc(O)c([N+](=O)[O-])c3)cc2C)[nH]1
REMARK SMILES IDX 10 1 11 2 12 3 13 4 15 5 19 6 9 7 7 8 8 9 21 10 20 11 22 13
REMARK SMILES IDX 6 14 2 15 3 16 23 17 4 18 1 19 5 21 16 22 17 23 18 24 14 25
REMARK H PARENT 8 12 23 20 14 26
ROOT
ATOM      1  C   UNL     1      22.934   0.556  52.460  1.00  0.00    +0.005 A 
ATOM      2  C   UNL     1      21.726   0.062  52.980  1.00  0.00    +0.014 A 
ATOM      3  C   UNL     1      21.702  -0.765  54.112  1.00  0.00    +0.054 A 
ATOM      4  C   UNL     1      22.895  -1.108  54.742  1.00  0.00    +0.194 A 
ATOM      5  C   UNL     1      24.093  -0.615  54.230  1.00  0.00    +0.311 A 
ATOM      6  C   UNL     1      24.131   0.206  53.094  1.00  0.00    +0.100 A 
ENDROOT
BRANCH   1   7
ATOM      7  C   UNL     1      22.929   1.412  51.273  1.00  0.00    +0.046 A 
ATOM      8  C   UNL     1      23.525   3.136  49.925  1.00  0.00    +0.066 A 
ATOM      9  N   UNL     1      23.746   2.511  51.128  1.00  0.00    -0.353 N 
ATOM     10  C   UNL     1      22.539   2.426  49.261  1.00  0.00    -0.023 A 
ATOM     11  C   UNL     1      22.165   1.351  50.120  1.00  0.00    +0.032 A 
ATOM     12  H   UNL     1      24.394   2.850  51.823  1.00  0.00    +0.167 HD
ATOM     13  C   UNL     1      21.976   2.691  47.910  1.00  0.00    +0.047 C 
BRANCH   8  14
ATOM     14  C   UNL     1      24.244   4.315  49.551  1.00  0.00    +0.065 A 
ATOM     15  C   UNL     1      24.515   6.486  49.010  1.00  0.00    +0.012 A 
ATOM     16  C   UNL     1      25.762   5.900  49.025  1.00  0.00    +0.026 A 
ATOM     17  N   UNL     1      23.605   5.509  49.325  1.00  0.00    -0.357 N 
ATOM     18  C   UNL     1      25.602   4.524  49.362  1.00  0.00    -0.024 A 
ATOM     19  C   UNL     1      24.097   7.880  48.726  1.00  0.00    +0.064 C 
ATOM     20  H   UNL     1      22.607   5.644  49.407  1.00  0.00    +0.166 HD
ATOM     21  C   UNL     1      26.702   3.528  49.462  1.00  0.00    +0.047 C 
ENDBRANCH   8  14
ENDBRANCH   1   7
BRANCH   5  22
ATOM     22  N   UNL     1      25.350  -0.945  54.869  1.00  0.00    +0.066 N 
ATOM     23  O   UNL     1      26.290  -1.287  54.138  1.00  0.00    -0.258 OA
ATOM     24  O   UNL     1      25.369  -0.928  56.107  1.00  0.00    -0.258 OA
ENDBRANCH   5  22
BRANCH   4  25
ATOM     25  O   UNL     1      22.881  -1.934  55.825  1.00  0.00    -0.502 OA
ATOM     26  H   UNL     1      22.980  -1.414  56.642  1.00  0.00    +0.293 HD
ENDBRANCH   4  25
TORSDOF 4
ENDMDL
MODEL 4
REMARK VINA RESULT:    -8.046      1.441      2.938
REMARK INTER + INTRA:         -10.661
REMARK INTER:                  -9.832
REMARK INTRA:                  -0.828
REMARK UNBOUND:                -0.968
REMARK SMILES Cc1cc(C)c(-c2[nH]c(-c3ccc(O)c([N+](=O)[O-])c3)cc2C)[nH]1
REMARK SMILES IDX 10 1 11 2 12 3 13 4 15 5 19 6 9 7 7 8 8 9 21 10 20 11 22 13
REMARK SMILES IDX 6 14 2 15 3 16 23 17 4 18 1 19 5 21 16 22 17 23 18 24 14 25
REMARK H PARENT 8 12 23 20 14 26
ROOT
ATOM      1  C   UNL     1      25.322   1.173  52.638  1.00  0.00    +0.005 A 
ATOM      2  C   UNL     1      24.153   0.427  52.860  1.00  0.00    +0.014 A 
ATOM      3  C   UNL     1      24.054  -0.477  53.927  1.00  0.00    +0.054 A 
ATOM      4  C   UNL     1      25.132  -0.646  54.791  1.00  0.00    +0.194 A 
ATOM      5  C   UNL     1      26.290   0.096  54.575  1.00  0.00    +0.311 A 
ATOM      6  C   UNL     1      26.404   0.998  53.508  1.00  0.00    +0.100 A 
ENDROOT
BRANCH   1   7
ATOM      7  C   UNL     1      25.398   2.105  51.512  1.00  0.00    +0.046 A 
ATOM      8  C   UNL     1      24.655   3.410  49.813  1.00  0.00    +0.066 A 
ATOM      9  N   UNL     1      24.293   2.556  50.826  1.00  0.00    -0.353 N 
ATOM     10  C   UNL     1      26.034   3.526  49.838  1.00  0.00    -0.023 A 
ATOM     11  C   UNL     1      26.492   2.696  50.903  1.00  0.00    +0.032 A 
ATOM     12  H   UNL     1      23.341   2.270  51.004  1.00  0.00    +0.167 HD
ATOM     13  C   UNL     1      26.896   4.360  48.959  1.00  0.00    +0.047 C 
BRANCH   8  14
ATOM     14  C   UNL     1      23.680   3.997  48.946  1.00  0.00    +0.065 A 
ATOM     15  C   UNL     1      22.574   5.664  47.908  1.00  0.00    +0.012 A 
ATOM     16  C   UNL     1      22.051   4.471  47.458  1.00  0.00    +0.026 A 
ATOM     17  N   UNL     1      23.556   5.358  48.815  1.00  0.00    -0.357 N 
ATOM     18  C   UNL     1      22.741   3.408  48.112  1.00  0.00    -0.024 A 
ATOM     19  C   UNL     1      22.236   7.067  47.567  1.00  0.00    +0.064 C 
ATOM     20  H   UNL     1      24.131   6.031  49.304  1.00  0.00    +0.166 HD
ATOM     21  C   UNL     1      22.465   1.959  47.926  1.00  0.00    +0.047 C 
ENDBRANCH   8  14
ENDBRANCH   1   7
BRANCH   5  22
ATOM     22  N   UNL     1      27.425  -0.048  55.463  1.00  0.00    +0.066 N 
ATOM     23  O   UNL     1      28.519  -0.323  54.952  1.00  0.00    -0.258 OA
ATOM     24  O   UNL     1      27.200   0.047  56.678  1.00  0.00    -0.258 OA
ENDBRANCH   5  22
BRANCH   4  25
ATOM     25  O   UNL     1      25.052  -1.544  55.813  1.00  0.00    -0.502 OA
ATOM     26  H   UNL     1      24.311  -1.313  56.401  1.00  0.00    +0.293 HD
ENDBRANCH   4  25
TORSDOF 4
ENDMDL
MODEL 5
REMARK VINA RESULT:    -7.987      3.868      6.165
REMARK INTER + INTRA:         -10.590
REMARK INTER:                  -9.592
REMARK INTRA:                  -0.998
REMARK UNBOUND:                -0.968
REMARK SMILES Cc1cc(C)c(-c2[nH]c(-c3ccc(O)c([N+](=O)[O-])c3)cc2C)[nH]1
REMARK SMILES IDX 10 1 11 2 12 3 13 4 15 5 19 6 9 7 7 8 8 9 21 10 20 11 22 13
REMARK SMILES IDX 6 14 2 15 3 16 23 17 4 18 1 19 5 21 16 22 17 23 18 24 14 25
REMARK H PARENT 8 12 23 20 14 26
ROOT
ATOM      1  C   UNL     1      25.272   0.611  52.912  1.00  0.00    +0.005 A 
ATOM      2  C   UNL     1      25.531  -0.759  52.741  1.00  0.00    +0.014 A 
ATOM      3  C   UNL     1      26.816  -1.288  52.919  1.00  0.00    +0.054 A 
ATOM      4  C   UNL     1      27.866  -0.446  53.275  1.00  0.00    +0.194 A 
ATOM      5  C   UNL     1      27.611   0.912  53.450  1.00  0.00    +0.311 A 
ATOM      6  C   UNL     1      26.331   1.454  53.267  1.00  0.00    +0.100 A 
ENDROOT
BRANCH   1   7
ATOM      7  C   UNL     1      23.920   1.135  52.713  1.00  0.00    +0.046 A 
ATOM      8  C   UNL     1      21.679   1.088  52.368  1.00  0.00    +0.066 A 
ATOM      9  N   UNL     1      22.814   0.333  52.545  1.00  0.00    -0.353 N 
ATOM     10  C   UNL     1      22.051   2.420  52.426  1.00  0.00    -0.023 A 
ATOM     11  C   UNL     1      23.462   2.439  52.634  1.00  0.00    +0.032 A 
ATOM     12  H   UNL     1      22.826  -0.675  52.510  1.00  0.00    +0.167 HD
ATOM     13  C   UNL     1      21.175   3.617  52.319  1.00  0.00    +0.047 C 
BRANCH   8  14
ATOM     14  C   UNL     1      20.402   0.479  52.156  1.00  0.00    +0.065 A 
ATOM     15  C   UNL     1      18.592  -0.760  52.673  1.00  0.00    +0.012 A 
ATOM     16  C   UNL     1      18.392  -0.232  51.415  1.00  0.00    +0.026 A 
ATOM     17  N   UNL     1      19.819  -0.325  53.104  1.00  0.00    -0.357 N 
ATOM     18  C   UNL     1      19.535   0.551  51.076  1.00  0.00    -0.024 A 
ATOM     19  C   UNL     1      17.737  -1.638  53.507  1.00  0.00    +0.064 C 
ATOM     20  H   UNL     1      20.232  -0.538  54.001  1.00  0.00    +0.166 HD
ATOM     21  C   UNL     1      19.732   1.275  49.792  1.00  0.00    +0.047 C 
ENDBRANCH   8  14
ENDBRANCH   1   7
BRANCH   5  22
ATOM     22  N   UNL     1      28.679   1.811  53.831  1.00  0.00    +0.066 N 
ATOM     23  O   UNL     1      29.220   1.623  54.929  1.00  0.00    -0.258 OA
ATOM     24  O   UNL     1      28.925   2.748  53.058  1.00  0.00    -0.258 OA
ENDBRANCH   5  22
BRANCH   4  25
ATOM     25  O   UNL     1      29.124  -0.950  53.423  1.00  0.00    -0.502 OA
ATOM     26  H   UNL     1      29.588  -0.481  54.138  1.00  0.00    +0.293 HD
ENDBRANCH   4  25
TORSDOF 4
ENDMDL
MODEL 6
REMARK VINA RESULT:    -7.914      3.362      6.101
REMARK INTER + INTRA:         -10.501
REMARK INTER:                  -9.944
REMARK INTRA:                  -0.557
REMARK UNBOUND:                -0.968
REMARK SMILES Cc1cc(C)c(-c2[nH]c(-c3ccc(O)c([N+](=O)[O-])c3)cc2C)[nH]1
REMARK SMILES IDX 10 1 11 2 12 3 13 4 15 5 19 6 9 7 7 8 8 9 21 10 20 11 22 13
REMARK SMILES IDX 6 14 2 15 3 16 23 17 4 18 1 19 5 21 16 22 17 23 18 24 14 25
REMARK H PARENT 8 12 23 20 14 26
ROOT
ATOM      1  C   UNL     1      25.142   0.719  53.062  1.00  0.00    +0.005 A 
ATOM      2  C   UNL     1      25.585   1.676  52.134  1.00  0.00    +0.014 A 
ATOM      3  C   UNL     1      26.914   2.123  52.124  1.00  0.00    +0.054 A 
ATOM      4  C   UNL     1      27.821   1.612  53.048  1.00  0.00    +0.194 A 
ATOM      5  C   UNL     1      27.384   0.661  53.966  1.00  0.00    +0.311 A 
ATOM      6  C   UNL     1      26.056   0.212  53.991  1.00  0.00    +0.100 A 
ENDROOT
BRANCH   1   7
ATOM      7  C   UNL     1      23.747   0.277  53.054  1.00  0.00    +0.046 A 
ATOM      8  C   UNL     1      21.580   0.175  52.391  1.00  0.00    +0.066 A 
ATOM      9  N   UNL     1      22.807   0.753  52.168  1.00  0.00    -0.353 N 
ATOM     10  C   UNL     1      21.721  -0.707  53.448  1.00  0.00    -0.023 A 
ATOM     11  C   UNL     1      23.083  -0.629  53.863  1.00  0.00    +0.032 A 
ATOM     12  H   UNL     1      22.971   1.464  51.471  1.00  0.00    +0.167 HD
ATOM     13  C   UNL     1      20.684  -1.591  54.043  1.00  0.00    +0.047 C 
BRANCH   8  14
ATOM     14  C   UNL     1      20.436   0.524  51.606  1.00  0.00    +0.065 A 
ATOM     15  C   UNL     1      18.267   0.993  51.209  1.00  0.00    +0.012 A 
ATOM     16  C   UNL     1      18.949   1.128  50.019  1.00  0.00    +0.026 A 
ATOM     17  N   UNL     1      19.183   0.619  52.159  1.00  0.00    -0.357 N 
ATOM     18  C   UNL     1      20.323   0.829  50.258  1.00  0.00    -0.024 A 
ATOM     19  C   UNL     1      16.833   1.180  51.537  1.00  0.00    +0.064 C 
ATOM     20  H   UNL     1      18.979   0.460  53.136  1.00  0.00    +0.166 HD
ATOM     21  C   UNL     1      21.397   0.834  49.229  1.00  0.00    +0.047 C 
ENDBRANCH   8  14
ENDBRANCH   1   7
BRANCH   5  22
ATOM     22  N   UNL     1      28.306   0.102  54.932  1.00  0.00    +0.066 N 
ATOM     23  O   UNL     1      28.086   0.331  56.130  1.00  0.00    -0.258 OA
ATOM     24  O   UNL     1      29.289  -0.505  54.483  1.00  0.00    -0.258 OA
ENDBRANCH   5  22
BRANCH   4  25
ATOM     25  O   UNL     1      29.108   2.063  53.061  1.00  0.00    -0.502 OA
ATOM     26  H   UNL     1      29.266   2.638  52.291  1.00  0.00    +0.293 HD
ENDBRANCH   4  25
TORSDOF 4
ENDMDL
MODEL 7
REMARK VINA RESULT:    -7.713      3.688      5.818
REMARK INTER + INTRA:         -10.259
REMARK INTER:                  -9.499
REMARK INTRA:                  -0.760
REMARK UNBOUND:                -0.968
REMARK SMILES Cc1cc(C)c(-c2[nH]c(-c3ccc(O)c([N+](=O)[O-])c3)cc2C)[nH]1
REMARK SMILES IDX 10 1 11 2 12 3 13 4 15 5 19 6 9 7 7 8 8 9 21 10 20 11 22 13
REMARK SMILES IDX 6 14 2 15 3 16 23 17 4 18 1 19 5 21 16 22 17 23 18 24 14 25
REMARK H PARENT 8 12 23 20 14 26
ROOT
ATOM      1  C   UNL     1      26.117   1.060  53.063  1.00  0.00    +0.005 A 
ATOM      2  C   UNL     1      27.142   1.900  53.529  1.00  0.00    +0.014 A 
ATOM      3  C   UNL     1      28.430   1.409  53.786  1.00  0.00    +0.054 A 
ATOM      4  C   UNL     1      28.709   0.061  53.577  1.00  0.00    +0.194 A 
ATOM      5  C   UNL     1      27.695  -0.773  53.112  1.00  0.00    +0.311 A 
ATOM      6  C   UNL     1      26.401  -0.295  52.858  1.00  0.00    +0.100 A 
ENDROOT
BRANCH   1   7
ATOM      7  C   UNL     1      24.781   1.599  52.810  1.00  0.00    +0.046 A 
ATOM      8  C   UNL     1      22.565   1.578  52.326  1.00  0.00    +0.066 A 
ATOM      9  N   UNL     1      23.686   0.812  52.532  1.00  0.00    -0.353 N 
ATOM     10  C   UNL     1      22.933   2.904  52.477  1.00  0.00    -0.023 A 
ATOM     11  C   UNL     1      24.328   2.907  52.772  1.00  0.00    +0.032 A 
ATOM     12  H   UNL     1      23.700  -0.193  52.444  1.00  0.00    +0.167 HD
ATOM     13  C   UNL     1      22.066   4.109  52.381  1.00  0.00    +0.047 C 
BRANCH   8  14
ATOM     14  C   UNL     1      21.303   0.987  52.003  1.00  0.00    +0.065 A 
ATOM     15  C   UNL     1      19.376  -0.114  52.396  1.00  0.00    +0.012 A 
ATOM     16  C   UNL     1      19.389   0.245  51.066  1.00  0.00    +0.026 A 
ATOM     17  N   UNL     1      20.548   0.337  52.948  1.00  0.00    -0.357 N 
ATOM     18  C   UNL     1      20.607   0.939  50.805  1.00  0.00    -0.024 A 
ATOM     19  C   UNL     1      18.365  -0.845  53.198  1.00  0.00    +0.064 C 
ATOM     20  H   UNL     1      20.814   0.234  53.918  1.00  0.00    +0.166 HD
ATOM     21  C   UNL     1      21.026   1.477  49.483  1.00  0.00    +0.047 C 
ENDBRANCH   8  14
ENDBRANCH   1   7
BRANCH   5  22
ATOM     22  N   UNL     1      27.957  -2.176  52.874  1.00  0.00    +0.066 N 
ATOM     23  O   UNL     1      27.180  -2.783  52.124  1.00  0.00    -0.258 OA
ATOM     24  O   UNL     1      28.901  -2.683  53.497  1.00  0.00    -0.258 OA
ENDBRANCH   5  22
BRANCH   4  25
ATOM     25  O   UNL     1      29.951  -0.428  53.852  1.00  0.00    -0.502 OA
ATOM     26  H   UNL     1      30.537  -0.298  53.085  1.00  0.00    +0.293 HD
ENDBRANCH   4  25
TORSDOF 4
ENDMDL
MODEL 8
REMARK VINA RESULT:    -7.440      4.310      6.281
REMARK INTER + INTRA:          -9.931
REMARK INTER:                  -8.930
REMARK INTRA:                  -1.001
REMARK UNBOUND:                -0.968
REMARK SMILES Cc1cc(C)c(-c2[nH]c(-c3ccc(O)c([N+](=O)[O-])c3)cc2C)[nH]1
REMARK SMILES IDX 10 1 11 2 12 3 13 4 15 5 19 6 9 7 7 8 8 9 21 10 20 11 22 13
REMARK SMILES IDX 6 14 2 15 3 16 23 17 4 18 1 19 5 21 16 22 17 23 18 24 14 25
REMARK H PARENT 8 12 23 20 14 26
ROOT
ATOM      1  C   UNL     1      22.583  -0.118  53.263  1.00  0.00    +0.005 A 
ATOM      2  C   UNL     1      22.043  -0.811  54.359  1.00  0.00    +0.014 A 
ATOM      3  C   UNL     1      22.864  -1.350  55.359  1.00  0.00    +0.054 A 
ATOM      4  C   UNL     1      24.245  -1.199  55.275  1.00  0.00    +0.194 A 
ATOM      5  C   UNL     1      24.782  -0.508  54.192  1.00  0.00    +0.311 A 
ATOM      6  C   UNL     1      23.972   0.029  53.181  1.00  0.00    +0.100 A 
ENDROOT
BRANCH   1   7
ATOM      7  C   UNL     1      21.702   0.428  52.230  1.00  0.00    +0.046 A 
ATOM      8  C   UNL     1      19.802   1.270  51.322  1.00  0.00    +0.066 A 
ATOM      9  N   UNL     1      20.398   0.802  52.467  1.00  0.00    -0.353 N 
ATOM     10  C   UNL     1      20.741   1.206  50.307  1.00  0.00    -0.023 A 
ATOM     11  C   UNL     1      21.928   0.668  50.886  1.00  0.00    +0.032 A 
ATOM     12  H   UNL     1      19.917   0.708  53.350  1.00  0.00    +0.167 HD
ATOM     13  C   UNL     1      20.584   1.627  48.889  1.00  0.00    +0.047 C 
BRANCH   8  14
ATOM     14  C   UNL     1      18.438   1.702  51.311  1.00  0.00    +0.065 A 
ATOM     15  C   UNL     1      16.721   3.130  51.614  1.00  0.00    +0.012 A 
ATOM     16  C   UNL     1      16.209   1.966  51.083  1.00  0.00    +0.026 A 
ATOM     17  N   UNL     1      18.073   2.950  51.753  1.00  0.00    -0.357 N 
ATOM     18  C   UNL     1      17.287   1.053  50.891  1.00  0.00    -0.024 A 
ATOM     19  C   UNL     1      16.057   4.397  52.007  1.00  0.00    +0.064 C 
ATOM     20  H   UNL     1      18.722   3.641  52.105  1.00  0.00    +0.166 HD
ATOM     21  C   UNL     1      17.160  -0.329  50.358  1.00  0.00    +0.047 C 
ENDBRANCH   8  14
ENDBRANCH   1   7
BRANCH   5  22
ATOM     22  N   UNL     1      26.214  -0.323  54.082  1.00  0.00    +0.066 N 
ATOM     23  O   UNL     1      26.651   0.830  54.193  1.00  0.00    -0.258 OA
ATOM     24  O   UNL     1      26.888  -1.327  53.813  1.00  0.00    -0.258 OA
ENDBRANCH   5  22
BRANCH   4  25
ATOM     25  O   UNL     1      25.050  -1.744  56.230  1.00  0.00    -0.502 OA
ATOM     26  H   UNL     1      24.710  -1.527  57.116  1.00  0.00    +0.293 HD
ENDBRANCH   4  25
TORSDOF 4
ENDMDL
MODEL 9
REMARK VINA RESULT:    -7.239      3.384      3.803
REMARK INTER + INTRA:          -9.688
REMARK INTER:                  -8.706
REMARK INTRA:                  -0.982
REMARK UNBOUND:                -0.968
REMARK SMILES Cc1cc(C)c(-c2[nH]c(-c3ccc(O)c([N+](=O)[O-])c3)cc2C)[nH]1
REMARK SMILES IDX 10 1 11 2 12 3 13 4 15 5 19 6 9 7 7 8 8 9 21 10 20 11 22 13
REMARK SMILES IDX 6 14 2 15 3 16 23 17 4 18 1 19 5 21 16 22 17 23 18 24 14 25
REMARK H PARENT 8 12 23 20 14 26
ROOT
ATOM      1  C   UNL     1      22.613  -0.110  53.247  1.00  0.00    +0.005 A 
ATOM      2  C   UNL     1      22.056  -0.717  54.385  1.00  0.00    +0.014 A 
ATOM      3  C   UNL     1      22.864  -1.271  55.387  1.00  0.00    +0.054 A 
ATOM      4  C   UNL     1      24.250  -1.223  55.262  1.00  0.00    +0.194 A 
ATOM      5  C   UNL     1      24.804  -0.618  54.137  1.00  0.00    +0.311 A 
ATOM      6  C   UNL     1      24.006  -0.067  53.124  1.00  0.00    +0.100 A 
ENDROOT
BRANCH   1   7
ATOM      7  C   UNL     1      21.744   0.455  52.214  1.00  0.00    +0.046 A 
ATOM      8  C   UNL     1      21.133   1.783  50.480  1.00  0.00    +0.066 A 
ATOM      9  N   UNL     1      22.151   1.431  51.333  1.00  0.00    -0.353 N 
ATOM     10  C   UNL     1      20.030   1.013  50.808  1.00  0.00    -0.023 A 
ATOM     11  C   UNL     1      20.422   0.189  51.903  1.00  0.00    +0.032 A 
ATOM     12  H   UNL     1      23.059   1.872  51.331  1.00  0.00    +0.167 HD
ATOM     13  C   UNL     1      18.695   1.006  50.153  1.00  0.00    +0.047 C 
BRANCH   8  14
ATOM     14  C   UNL     1      21.309   2.794  49.483  1.00  0.00    +0.065 A 
ATOM     15  C   UNL     1      21.615   3.618  47.408  1.00  0.00    +0.012 A 
ATOM     16  C   UNL     1      21.502   4.687  48.271  1.00  0.00    +0.026 A 
ATOM     17  N   UNL     1      21.502   2.478  48.161  1.00  0.00    -0.357 N 
ATOM     18  C   UNL     1      21.313   4.177  49.588  1.00  0.00    -0.024 A 
ATOM     19  C   UNL     1      21.820   3.568  45.940  1.00  0.00    +0.064 C 
ATOM     20  H   UNL     1      21.530   1.534  47.800  1.00  0.00    +0.166 HD
ATOM     21  C   UNL     1      21.171   5.000  50.819  1.00  0.00    +0.047 C 
ENDBRANCH   8  14
ENDBRANCH   1   7
BRANCH   5  22
ATOM     22  N   UNL     1      26.242  -0.542  53.983  1.00  0.00    +0.066 N 
ATOM     23  O   UNL     1      26.729  -0.999  52.940  1.00  0.00    -0.258 OA
ATOM     24  O   UNL     1      26.884  -0.089  54.940  1.00  0.00    -0.258 OA
ENDBRANCH   5  22
BRANCH   4  25
ATOM     25  O   UNL     1      25.041  -1.785  56.220  1.00  0.00    -0.502 OA
ATOM     26  H   UNL     1      24.741  -1.508  57.103  1.00  0.00    +0.293 HD
ENDBRANCH   4  25
TORSDOF 4
ENDMDL
