REMARK SMILES CCN(CC/N=N/Nc1ccc2ncnc(-c3cccc(Cl)c3)c2c1)c1cccc(Br)c1
REMARK SMILES IDX 6 1 7 2 5 3 4 4 3 5 2 6 1 7 26 8 27 9 32 10 28 11 30 12
REMARK SMILES IDX 29 13 31 14 8 15 9 17 10 18 25 19 11 20 24 21 12 22 16 23
REMARK SMILES IDX 13 24 15 25 14 26 17 27 18 28 23 29 19 30 21 31 20 32 22 33
REMARK H PARENT 8 16
ROOT
ATOM      1  N   UNL     1      -1.003   1.107  -1.018  1.00  0.00    -0.169 NA
ATOM      2  N   UNL     1      -0.533  -0.023  -0.795  1.00  0.00    -0.075 NA
ENDROOT
BRANCH   1   3
ATOM      3  C   UNL     1      -2.475   1.110  -0.944  1.00  0.00    +0.190 C 
BRANCH   3   4
ATOM      4  C   UNL     1      -2.916   1.376   0.501  1.00  0.00    +0.142 C 
BRANCH   4   5
ATOM      5  N   UNL     1      -4.384   1.376   0.647  1.00  0.00    -0.370 N 
BRANCH   5   6
ATOM      6  C   UNL     1      -5.018   2.675   0.907  1.00  0.00    +0.113 C 
ATOM      7  C   UNL     1      -5.320   3.412  -0.389  1.00  0.00    +0.027 C 
ENDBRANCH   5   6
BRANCH   5   8
ATOM      8  C   UNL     1      -5.127   0.201   0.573  1.00  0.00    +0.038 A 
ATOM      9  C   UNL     1      -6.527   0.208   0.422  1.00  0.00    +0.026 A 
ATOM     10  C   UNL     1      -4.528  -1.070   0.641  1.00  0.00    +0.041 A 
ATOM     11  C   UNL     1      -7.283  -0.970   0.343  1.00  0.00    +0.003 A 
ATOM     12  C   UNL     1      -5.278  -2.251   0.563  1.00  0.00    +0.020 A 
ATOM     13  C   UNL     1      -6.657  -2.207   0.413  1.00  0.00    +0.016 A 
ATOM     14 Br   UNL     1      -4.401  -3.925   0.662  1.00  0.00    -0.051 Br
ENDBRANCH   5   8
ENDBRANCH   4   5
ENDBRANCH   3   4
ENDBRANCH   1   3
BRANCH   2  15
ATOM     15  N   UNL     1       0.801   0.105  -0.898  1.00  0.00    -0.260 N 
ATOM     16  H   UNL     1       1.143   1.059  -0.888  1.00  0.00    +0.192 HD
BRANCH  15  17
ATOM     17  C   UNL     1       1.627  -0.857  -0.294  1.00  0.00    +0.059 A 
ATOM     18  C   UNL     1       1.160  -2.107   0.109  1.00  0.00    +0.030 A 
ATOM     19  C   UNL     1       3.001  -0.614  -0.188  1.00  0.00    +0.040 A 
ATOM     20  C   UNL     1       2.033  -3.054   0.658  1.00  0.00    +0.031 A 
ATOM     21  C   UNL     1       3.893  -1.579   0.358  1.00  0.00    +0.029 A 
ATOM     22  C   UNL     1       3.390  -2.809   0.799  1.00  0.00    +0.074 A 
ATOM     23  C   UNL     1       5.282  -1.420   0.519  1.00  0.00    +0.082 A 
ATOM     24  N   UNL     1       4.159  -3.758   1.344  1.00  0.00    -0.236 NA
ATOM     25  N   UNL     1       6.071  -2.361   1.084  1.00  0.00    -0.236 NA
ATOM     26  C   UNL     1       5.463  -3.487   1.465  1.00  0.00    +0.223 A 
BRANCH  23  27
ATOM     27  C   UNL     1       6.018  -0.219   0.094  1.00  0.00    +0.002 A 
ATOM     28  C   UNL     1       6.643   0.608   1.043  1.00  0.00    +0.010 A 
ATOM     29  C   UNL     1       6.140   0.117  -1.265  1.00  0.00    +0.030 A 
ATOM     30  C   UNL     1       7.348   1.749   0.653  1.00  0.00    +0.002 A 
ATOM     31  C   UNL     1       6.845   1.258  -1.651  1.00  0.00    +0.041 A 
ATOM     32  C   UNL     1       7.446   2.077  -0.698  1.00  0.00    +0.020 A 
ATOM     33 Cl   UNL     1       6.969   1.658  -3.320  1.00  0.00    -0.084 Cl
ENDBRANCH  23  27
ENDBRANCH  15  17
ENDBRANCH   2  15
TORSDOF 8
