REMARK SMILES CN(CC/N=N/Nc1ccc2ncnc(-c3cccc(Cl)c3)c2c1)c1ccc(N2CCOCC2)[nH]1
REMARK SMILES IDX 5 1 6 2 4 3 3 4 2 5 1 6 25 7 26 8 35 9 27 10 28 11 29 13
REMARK SMILES IDX 30 14 34 15 31 16 33 17 32 18 7 19 8 21 9 22 24 23 10 24
REMARK SMILES IDX 23 25 11 26 15 27 12 28 14 29 13 30 16 31 17 32 22 33 18 34
REMARK SMILES IDX 20 35 19 36 21 37
REMARK H PARENT 35 12 7 20
ROOT
ATOM      1  N   UNL     1       0.308   1.098   0.374  1.00  0.00    -0.169 NA
ATOM      2  N   UNL     1       1.213   1.097  -0.481  1.00  0.00    -0.075 NA
ENDROOT
BRANCH   1   3
ATOM      3  C   UNL     1      -0.594   2.260   0.241  1.00  0.00    +0.190 C 
BRANCH   3   4
ATOM      4  C   UNL     1      -1.338   2.293  -1.103  1.00  0.00    +0.143 C 
BRANCH   4   5
ATOM      5  N   UNL     1      -2.320   1.207  -1.242  1.00  0.00    -0.359 N 
ATOM      6  C   UNL     1      -1.816  -0.075  -1.724  1.00  0.00    +0.145 C 
BRANCH   5   7
ATOM      7  C   UNL     1      -3.580   1.340  -0.734  1.00  0.00    +0.107 A 
ATOM      8  C   UNL     1      -4.268   2.421  -0.227  1.00  0.00    +0.048 A 
ATOM      9  N   UNL     1      -4.439   0.270  -0.649  1.00  0.00    -0.328 N 
ATOM     10  C   UNL     1      -5.552   1.978   0.178  1.00  0.00    +0.048 A 
ATOM     11  C   UNL     1      -5.661   0.642  -0.146  1.00  0.00    +0.107 A 
ATOM     12  H   UNL     1      -4.206  -0.666  -0.926  1.00  0.00    +0.169 HD
BRANCH  11  13
ATOM     13  N   UNL     1      -6.670  -0.267   0.015  1.00  0.00    -0.354 N 
ATOM     14  C   UNL     1      -6.941  -1.243  -1.067  1.00  0.00    +0.146 C 
ATOM     15  C   UNL     1      -7.919   0.178   0.675  1.00  0.00    +0.146 C 
ATOM     16  C   UNL     1      -7.781  -2.408  -0.523  1.00  0.00    +0.181 C 
ATOM     17  C   UNL     1      -8.722  -1.043   1.148  1.00  0.00    +0.181 C 
ATOM     18  O   UNL     1      -9.006  -1.947   0.066  1.00  0.00    -0.378 OA
ENDBRANCH  11  13
ENDBRANCH   5   7
ENDBRANCH   4   5
ENDBRANCH   3   4
ENDBRANCH   1   3
BRANCH   2  19
ATOM     19  N   UNL     1       1.999   0.040  -0.180  1.00  0.00    -0.260 N 
ATOM     20  H   UNL     1       1.987  -0.194   0.808  1.00  0.00    +0.192 HD
BRANCH  19  21
ATOM     21  C   UNL     1       3.261   0.007  -0.796  1.00  0.00    +0.059 A 
ATOM     22  C   UNL     1       3.425   0.333  -2.142  1.00  0.00    +0.030 A 
ATOM     23  C   UNL     1       4.393  -0.385  -0.078  1.00  0.00    +0.040 A 
ATOM     24  C   UNL     1       4.687   0.278  -2.742  1.00  0.00    +0.031 A 
ATOM     25  C   UNL     1       5.689  -0.392  -0.670  1.00  0.00    +0.029 A 
ATOM     26  C   UNL     1       5.822  -0.075  -2.028  1.00  0.00    +0.074 A 
ATOM     27  C   UNL     1       6.897  -0.701  -0.017  1.00  0.00    +0.082 A 
ATOM     28  N   UNL     1       6.994  -0.098  -2.673  1.00  0.00    -0.236 NA
ATOM     29  N   UNL     1       8.089  -0.740  -0.660  1.00  0.00    -0.236 NA
ATOM     30  C   UNL     1       8.072  -0.433  -1.959  1.00  0.00    +0.223 A 
BRANCH  27  31
ATOM     31  C   UNL     1       7.008  -0.991   1.427  1.00  0.00    +0.002 A 
ATOM     32  C   UNL     1       6.556  -0.078   2.400  1.00  0.00    +0.010 A 
ATOM     33  C   UNL     1       7.618  -2.179   1.869  1.00  0.00    +0.030 A 
ATOM     34  C   UNL     1       6.673  -0.357   3.765  1.00  0.00    +0.002 A 
ATOM     35  C   UNL     1       7.745  -2.449   3.232  1.00  0.00    +0.041 A 
ATOM     36  C   UNL     1       7.270  -1.546   4.182  1.00  0.00    +0.020 A 
ATOM     37 Cl   UNL     1       8.509  -3.906   3.749  1.00  0.00    -0.084 Cl
ENDBRANCH  27  31
ENDBRANCH  19  21
ENDBRANCH   2  19
TORSDOF 8
