MODEL 1
REMARK VINA RESULT:    -8.456      0.000      0.000
REMARK INTER + INTRA:         -11.777
REMARK INTER:                 -10.186
REMARK INTRA:                  -1.590
REMARK UNBOUND:                -1.590
REMARK SMILES Cc1cc(-c2ncnc3c2C(=C(C#N)C(N)=C(C#N)C#N)C(=O)N3)[nH]c1N1CCOCC1
REMARK SMILES IDX 5 1 6 2 7 3 8 4 9 5 10 6 11 7 12 8 13 9 14 10 22 11 23 12
REMARK SMILES IDX 24 13 4 15 2 16 3 17 26 18 25 19 1 20 27 22 28 23 32 24
REMARK SMILES IDX 29 25 31 26 30 27 15 28 17 29 18 30 20 31 19 32 21 33 16 34
REMARK H PARENT 24 14 25 21 16 35 16 36
ROOT
ATOM      1  C   UNL     1      21.890   0.324  53.147  1.00  0.00    +0.100 A 
ATOM      2  N   UNL     1      20.635  -0.186  53.132  1.00  0.00    -0.234 NA
ATOM      3  C   UNL     1      20.392  -1.239  53.936  1.00  0.00    +0.225 A 
ATOM      4  N   UNL     1      21.269  -1.812  54.766  1.00  0.00    -0.218 NA
ATOM      5  C   UNL     1      22.492  -1.287  54.687  1.00  0.00    +0.145 A 
ATOM      6  C   UNL     1      22.907  -0.269  53.846  1.00  0.00    +0.059 A 
ATOM      7  C   UNL     1      24.344  -0.086  54.093  1.00  0.00    +0.073 C 
ATOM      8  C   UNL     1      25.324   0.469  53.347  1.00  0.00    +0.091 C 
ATOM      9  C   UNL     1      25.090   0.941  52.015  1.00  0.00    +0.102 C 
ATOM     10  N   UNL     1      24.962   1.252  50.905  1.00  0.00    -0.192 NA
ATOM     11  C   UNL     1      24.658  -0.919  55.311  1.00  0.00    +0.259 C 
ATOM     12  O   UNL     1      25.703  -0.967  55.930  1.00  0.00    -0.269 OA
ATOM     13  N   UNL     1      23.519  -1.655  55.542  1.00  0.00    -0.306 N 
ATOM     14  H   UNL     1      23.408  -2.333  56.281  1.00  0.00    +0.171 HD
ENDROOT
BRANCH   1  15
ATOM     15  C   UNL     1      21.978   1.623  52.501  1.00  0.00    +0.067 A 
ATOM     16  C   UNL     1      22.155   3.827  51.938  1.00  0.00    -0.008 A 
ATOM     17  C   UNL     1      22.252   2.880  53.004  1.00  0.00    +0.035 A 
ATOM     18  C   UNL     1      21.802   3.117  50.801  1.00  0.00    +0.109 A 
ATOM     19  N   UNL     1      21.658   1.803  51.178  1.00  0.00    -0.340 N 
ATOM     20  C   UNL     1      22.422   5.282  52.081  1.00  0.00    +0.048 C 
ATOM     21  H   UNL     1      21.329   1.068  50.571  1.00  0.00    +0.168 HD
BRANCH  18  22
ATOM     22  N   UNL     1      21.551   3.469  49.509  1.00  0.00    -0.353 N 
ATOM     23  C   UNL     1      20.173   3.464  48.974  1.00  0.00    +0.146 C 
ATOM     24  C   UNL     1      22.608   3.456  48.487  1.00  0.00    +0.146 C 
ATOM     25  C   UNL     1      20.148   2.906  47.542  1.00  0.00    +0.181 C 
ATOM     26  C   UNL     1      22.134   4.210  47.234  1.00  0.00    +0.181 C 
ATOM     27  O   UNL     1      20.964   3.645  46.621  1.00  0.00    -0.378 OA
ENDBRANCH  18  22
ENDBRANCH   1  15
BRANCH   8  28
ATOM     28  C   UNL     1      26.746   0.511  53.760  1.00  0.00    +0.079 C 
ATOM     29  C   UNL     1      27.613  -0.473  53.390  1.00  0.00    +0.153 C 
ATOM     30  C   UNL     1      28.980  -0.429  53.785  1.00  0.00    +0.113 C 
ATOM     31  C   UNL     1      27.192  -1.590  52.614  1.00  0.00    +0.113 C 
ATOM     32  N   UNL     1      30.088  -0.373  54.124  1.00  0.00    -0.192 NA
ATOM     33  N   UNL     1      26.793  -2.485  51.992  1.00  0.00    -0.192 NA
BRANCH  28  34
ATOM     34  N   UNL     1      27.086   1.619  54.536  1.00  0.00    -0.396 N 
ATOM     35  H   UNL     1      27.531   2.376  54.017  1.00  0.00    +0.156 HD
ATOM     36  H   UNL     1      26.335   1.987  55.123  1.00  0.00    +0.156 HD
ENDBRANCH  28  34
ENDBRANCH   8  28
TORSDOF 4
ENDMDL
MODEL 2
REMARK VINA RESULT:    -8.409      2.515      5.700
REMARK INTER + INTRA:         -11.719
REMARK INTER:                 -10.210
REMARK INTRA:                  -1.509
REMARK UNBOUND:                -1.590
REMARK SMILES Cc1cc(-c2ncnc3c2C(=C(C#N)C(N)=C(C#N)C#N)C(=O)N3)[nH]c1N1CCOCC1
REMARK SMILES IDX 5 1 6 2 7 3 8 4 9 5 10 6 11 7 12 8 13 9 14 10 22 11 23 12
REMARK SMILES IDX 24 13 4 15 2 16 3 17 26 18 25 19 1 20 27 22 28 23 32 24
REMARK SMILES IDX 29 25 31 26 30 27 15 28 17 29 18 30 20 31 19 32 21 33 16 34
REMARK H PARENT 24 14 25 21 16 35 16 36
ROOT
ATOM      1  C   UNL     1      24.596   2.353  51.394  1.00  0.00    +0.100 A 
ATOM      2  N   UNL     1      25.912   2.656  51.267  1.00  0.00    -0.234 NA
ATOM      3  C   UNL     1      26.786   1.873  51.926  1.00  0.00    +0.225 A 
ATOM      4  N   UNL     1      26.479   0.809  52.675  1.00  0.00    -0.218 NA
ATOM      5  C   UNL     1      25.167   0.607  52.792  1.00  0.00    +0.145 A 
ATOM      6  C   UNL     1      24.154   1.379  52.248  1.00  0.00    +0.059 A 
ATOM      7  C   UNL     1      22.889   0.785  52.700  1.00  0.00    +0.073 C 
ATOM      8  C   UNL     1      21.640   1.290  52.802  1.00  0.00    +0.091 C 
ATOM      9  C   UNL     1      21.353   2.666  52.526  1.00  0.00    +0.102 C 
ATOM     10  N   UNL     1      21.095   3.790  52.398  1.00  0.00    -0.192 NA
ATOM     11  C   UNL     1      23.263  -0.526  53.348  1.00  0.00    +0.259 C 
ATOM     12  O   UNL     1      22.515  -1.394  53.755  1.00  0.00    -0.269 OA
ATOM     13  N   UNL     1      24.636  -0.506  53.426  1.00  0.00    -0.306 N 
ATOM     14  H   UNL     1      25.204  -1.235  53.831  1.00  0.00    +0.171 HD
ENDROOT
BRANCH   1  15
ATOM     15  C   UNL     1      23.764   3.040  50.421  1.00  0.00    +0.067 A 
ATOM     16  C   UNL     1      22.480   3.701  48.653  1.00  0.00    -0.008 A 
ATOM     17  C   UNL     1      23.121   2.590  49.284  1.00  0.00    +0.035 A 
ATOM     18  C   UNL     1      22.767   4.819  49.422  1.00  0.00    +0.109 A 
ATOM     19  N   UNL     1      23.577   4.400  50.451  1.00  0.00    -0.340 N 
ATOM     20  C   UNL     1      21.652   3.606  47.423  1.00  0.00    +0.048 C 
ATOM     21  H   UNL     1      24.007   5.015  51.124  1.00  0.00    +0.168 HD
BRANCH  18  22
ATOM     22  N   UNL     1      22.455   6.141  49.318  1.00  0.00    -0.353 N 
ATOM     23  C   UNL     1      23.207   7.030  48.408  1.00  0.00    +0.146 C 
ATOM     24  C   UNL     1      21.685   6.836  50.360  1.00  0.00    +0.146 C 
ATOM     25  C   UNL     1      23.456   8.396  49.066  1.00  0.00    +0.181 C 
ATOM     26  C   UNL     1      21.195   8.193  49.831  1.00  0.00    +0.181 C 
ATOM     27  O   UNL     1      22.253   9.083  49.441  1.00  0.00    -0.378 OA
ENDBRANCH  18  22
ENDBRANCH   1  15
BRANCH   8  28
ATOM     28  C   UNL     1      20.488   0.529  53.340  1.00  0.00    +0.079 C 
ATOM     29  C   UNL     1      19.495   0.087  52.520  1.00  0.00    +0.153 C 
ATOM     30  C   UNL     1      18.391  -0.646  53.039  1.00  0.00    +0.113 C 
ATOM     31  C   UNL     1      19.503   0.354  51.121  1.00  0.00    +0.113 C 
ATOM     32  N   UNL     1      17.499  -1.239  53.487  1.00  0.00    -0.192 NA
ATOM     33  N   UNL     1      19.553   0.610  49.990  1.00  0.00    -0.192 NA
BRANCH  28  34
ATOM     34  N   UNL     1      20.532   0.323  54.719  1.00  0.00    -0.396 N 
ATOM     35  H   UNL     1      21.471   0.191  55.096  1.00  0.00    +0.156 HD
ATOM     36  H   UNL     1      20.019   1.006  55.279  1.00  0.00    +0.156 HD
ENDBRANCH  28  34
ENDBRANCH   8  28
TORSDOF 4
ENDMDL
MODEL 3
REMARK VINA RESULT:    -7.898      2.518      4.030
REMARK INTER + INTRA:         -11.104
REMARK INTER:                  -9.575
REMARK INTRA:                  -1.529
REMARK UNBOUND:                -1.590
REMARK SMILES Cc1cc(-c2ncnc3c2C(=C(C#N)C(N)=C(C#N)C#N)C(=O)N3)[nH]c1N1CCOCC1
REMARK SMILES IDX 5 1 6 2 7 3 8 4 9 5 10 6 11 7 12 8 13 9 14 10 22 11 23 12
REMARK SMILES IDX 24 13 4 15 2 16 3 17 26 18 25 19 1 20 27 22 28 23 32 24
REMARK SMILES IDX 29 25 31 26 30 27 15 28 17 29 18 30 20 31 19 32 21 33 16 34
REMARK H PARENT 24 14 25 21 16 35 16 36
ROOT
ATOM      1  C   UNL     1      18.697   0.537  51.463  1.00  0.00    +0.100 A 
ATOM      2  N   UNL     1      17.451   0.012  51.356  1.00  0.00    -0.234 NA
ATOM      3  C   UNL     1      17.098  -0.916  52.264  1.00  0.00    +0.225 A 
ATOM      4  N   UNL     1      17.854  -1.352  53.278  1.00  0.00    -0.218 NA
ATOM      5  C   UNL     1      19.079  -0.827  53.286  1.00  0.00    +0.145 A 
ATOM      6  C   UNL     1      19.608   0.065  52.370  1.00  0.00    +0.059 A 
ATOM      7  C   UNL     1      21.000   0.302  52.775  1.00  0.00    +0.073 C 
ATOM      8  C   UNL     1      22.074   0.756  52.093  1.00  0.00    +0.091 C 
ATOM      9  C   UNL     1      22.022   1.027  50.687  1.00  0.00    +0.102 C 
ATOM     10  N   UNL     1      22.045   1.173  49.537  1.00  0.00    -0.192 NA
ATOM     11  C   UNL     1      21.145  -0.343  54.132  1.00  0.00    +0.259 C 
ATOM     12  O   UNL     1      22.098  -0.286  54.884  1.00  0.00    -0.269 OA
ATOM     13  N   UNL     1      19.981  -1.053  54.314  1.00  0.00    -0.306 N 
ATOM     14  H   UNL     1      19.768  -1.618  55.122  1.00  0.00    +0.171 HD
ENDROOT
BRANCH   1  15
ATOM     15  C   UNL     1      18.877   1.729  50.653  1.00  0.00    +0.067 A 
ATOM     16  C   UNL     1      19.071   3.835  49.794  1.00  0.00    -0.008 A 
ATOM     17  C   UNL     1      18.939   3.067  50.992  1.00  0.00    +0.035 A 
ATOM     18  C   UNL     1      19.068   2.936  48.738  1.00  0.00    +0.109 A 
ATOM     19  N   UNL     1      18.905   1.683  49.281  1.00  0.00    -0.340 N 
ATOM     20  C   UNL     1      19.210   5.314  49.755  1.00  0.00    +0.048 C 
ATOM     21  H   UNL     1      18.787   0.839  48.742  1.00  0.00    +0.168 HD
BRANCH  18  22
ATOM     22  N   UNL     1      19.144   3.069  47.385  1.00  0.00    -0.353 N 
ATOM     23  C   UNL     1      20.415   3.441  46.728  1.00  0.00    +0.146 C 
ATOM     24  C   UNL     1      17.943   3.273  46.562  1.00  0.00    +0.146 C 
ATOM     25  C   UNL     1      20.165   4.438  45.586  1.00  0.00    +0.181 C 
ATOM     26  C   UNL     1      18.281   3.048  45.079  1.00  0.00    +0.181 C 
ATOM     27  O   UNL     1      19.284   3.940  44.568  1.00  0.00    -0.378 OA
ENDBRANCH  18  22
ENDBRANCH   1  15
BRANCH   8  28
ATOM     28  C   UNL     1      23.429   0.876  52.681  1.00  0.00    +0.079 C 
ATOM     29  C   UNL     1      23.961   2.096  52.972  1.00  0.00    +0.153 C 
ATOM     30  C   UNL     1      25.260   2.210  53.540  1.00  0.00    +0.113 C 
ATOM     31  C   UNL     1      23.255   3.305  52.706  1.00  0.00    +0.113 C 
ATOM     32  N   UNL     1      26.325   2.276  53.999  1.00  0.00    -0.192 NA
ATOM     33  N   UNL     1      22.642   4.258  52.457  1.00  0.00    -0.192 NA
BRANCH  28  34
ATOM     34  N   UNL     1      24.072  -0.343  52.894  1.00  0.00    -0.396 N 
ATOM     35  H   UNL     1      23.450  -1.104  53.168  1.00  0.00    +0.156 HD
ATOM     36  H   UNL     1      24.693  -0.646  52.142  1.00  0.00    +0.156 HD
ENDBRANCH  28  34
ENDBRANCH   8  28
TORSDOF 4
ENDMDL
MODEL 4
REMARK VINA RESULT:    -7.775      2.075      5.255
REMARK INTER + INTRA:         -10.956
REMARK INTER:                  -9.605
REMARK INTRA:                  -1.350
REMARK UNBOUND:                -1.590
REMARK SMILES Cc1cc(-c2ncnc3c2C(=C(C#N)C(N)=C(C#N)C#N)C(=O)N3)[nH]c1N1CCOCC1
REMARK SMILES IDX 5 1 6 2 7 3 8 4 9 5 10 6 11 7 12 8 13 9 14 10 22 11 23 12
REMARK SMILES IDX 24 13 4 15 2 16 3 17 26 18 25 19 1 20 27 22 28 23 32 24
REMARK SMILES IDX 29 25 31 26 30 27 15 28 17 29 18 30 20 31 19 32 21 33 16 34
REMARK H PARENT 24 14 25 21 16 35 16 36
ROOT
ATOM      1  C   UNL     1      25.330   2.348  51.644  1.00  0.00    +0.100 A 
ATOM      2  N   UNL     1      26.677   2.479  51.718  1.00  0.00    -0.234 NA
ATOM      3  C   UNL     1      27.350   1.525  52.388  1.00  0.00    +0.225 A 
ATOM      4  N   UNL     1      26.813   0.445  52.966  1.00  0.00    -0.218 NA
ATOM      5  C   UNL     1      25.483   0.413  52.893  1.00  0.00    +0.145 A 
ATOM      6  C   UNL     1      24.658   1.365  52.319  1.00  0.00    +0.059 A 
ATOM      7  C   UNL     1      23.279   0.908  52.538  1.00  0.00    +0.073 C 
ATOM      8  C   UNL     1      22.099   1.566  52.539  1.00  0.00    +0.091 C 
ATOM      9  C   UNL     1      22.023   2.988  52.388  1.00  0.00    +0.102 C 
ATOM     10  N   UNL     1      21.926   4.144  52.358  1.00  0.00    -0.192 NA
ATOM     11  C   UNL     1      23.396  -0.499  53.074  1.00  0.00    +0.259 C 
ATOM     12  O   UNL     1      22.499  -1.292  53.282  1.00  0.00    -0.269 OA
ATOM     13  N   UNL     1      24.737  -0.673  53.325  1.00  0.00    -0.306 N 
ATOM     14  H   UNL     1      25.150  -1.508  53.711  1.00  0.00    +0.171 HD
ENDROOT
BRANCH   1  15
ATOM     15  C   UNL     1      24.732   3.233  50.659  1.00  0.00    +0.067 A 
ATOM     16  C   UNL     1      24.049   4.964  49.337  1.00  0.00    -0.008 A 
ATOM     17  C   UNL     1      24.957   4.564  50.366  1.00  0.00    +0.035 A 
ATOM     18  C   UNL     1      23.270   3.856  49.036  1.00  0.00    +0.109 A 
ATOM     19  N   UNL     1      23.672   2.845  49.877  1.00  0.00    -0.340 N 
ATOM     20  C   UNL     1      24.015   6.318  48.725  1.00  0.00    +0.048 C 
ATOM     21  H   UNL     1      23.226   1.942  49.937  1.00  0.00    +0.168 HD
BRANCH  18  22
ATOM     22  N   UNL     1      22.244   3.631  48.169  1.00  0.00    -0.353 N 
ATOM     23  C   UNL     1      22.479   2.976  46.865  1.00  0.00    +0.146 C 
ATOM     24  C   UNL     1      20.977   4.371  48.266  1.00  0.00    +0.146 C 
ATOM     25  C   UNL     1      21.648   3.647  45.761  1.00  0.00    +0.181 C 
ATOM     26  C   UNL     1      19.904   3.688  47.403  1.00  0.00    +0.181 C 
ATOM     27  O   UNL     1      20.234   3.620  46.007  1.00  0.00    -0.378 OA
ENDBRANCH  18  22
ENDBRANCH   1  15
BRANCH   8  28
ATOM     28  C   UNL     1      20.800   0.921  52.838  1.00  0.00    +0.079 C 
ATOM     29  C   UNL     1      19.975   0.507  51.836  1.00  0.00    +0.153 C 
ATOM     30  C   UNL     1      18.729  -0.116  52.126  1.00  0.00    +0.113 C 
ATOM     31  C   UNL     1      20.310   0.694  50.464  1.00  0.00    +0.113 C 
ATOM     32  N   UNL     1      17.715  -0.617  52.388  1.00  0.00    -0.192 NA
ATOM     33  N   UNL     1      20.625   0.883  49.363  1.00  0.00    -0.192 NA
BRANCH  28  34
ATOM     34  N   UNL     1      20.525   0.789  54.200  1.00  0.00    -0.396 N 
ATOM     35  H   UNL     1      20.699   1.631  54.747  1.00  0.00    +0.156 HD
ATOM     36  H   UNL     1      19.606   0.404  54.424  1.00  0.00    +0.156 HD
ENDBRANCH  28  34
ENDBRANCH   8  28
TORSDOF 4
ENDMDL
MODEL 5
REMARK VINA RESULT:    -7.380      3.961      7.455
REMARK INTER + INTRA:         -10.481
REMARK INTER:                  -9.106
REMARK INTRA:                  -1.375
REMARK UNBOUND:                -1.590
REMARK SMILES Cc1cc(-c2ncnc3c2C(=C(C#N)C(N)=C(C#N)C#N)C(=O)N3)[nH]c1N1CCOCC1
REMARK SMILES IDX 5 1 6 2 7 3 8 4 9 5 10 6 11 7 12 8 13 9 14 10 22 11 23 12
REMARK SMILES IDX 24 13 4 15 2 16 3 17 26 18 25 19 1 20 27 22 28 23 32 24
REMARK SMILES IDX 29 25 31 26 30 27 15 28 17 29 18 30 20 31 19 32 21 33 16 34
REMARK H PARENT 24 14 25 21 16 35 16 36
ROOT
ATOM      1  C   UNL     1      21.235   0.865  52.324  1.00  0.00    +0.100 A 
ATOM      2  N   UNL     1      22.203   0.695  53.257  1.00  0.00    -0.234 NA
ATOM      3  C   UNL     1      21.917  -0.113  54.295  1.00  0.00    +0.225 A 
ATOM      4  N   UNL     1      20.774  -0.783  54.479  1.00  0.00    -0.218 NA
ATOM      5  C   UNL     1      19.856  -0.524  53.548  1.00  0.00    +0.145 A 
ATOM      6  C   UNL     1      19.976   0.348  52.480  1.00  0.00    +0.059 A 
ATOM      7  C   UNL     1      18.687   0.326  51.776  1.00  0.00    +0.073 C 
ATOM      8  C   UNL     1      18.105   1.204  50.931  1.00  0.00    +0.091 C 
ATOM      9  C   UNL     1      18.698   2.472  50.626  1.00  0.00    +0.102 C 
ATOM     10  N   UNL     1      19.100   3.541  50.424  1.00  0.00    -0.192 NA
ATOM     11  C   UNL     1      17.906  -0.809  52.393  1.00  0.00    +0.259 C 
ATOM     12  O   UNL     1      16.834  -1.255  52.033  1.00  0.00    -0.269 OA
ATOM     13  N   UNL     1      18.647  -1.199  53.484  1.00  0.00    -0.306 N 
ATOM     14  H   UNL     1      18.388  -1.931  54.128  1.00  0.00    +0.171 HD
ENDROOT
BRANCH   1  15
ATOM     15  C   UNL     1      21.729   1.488  51.108  1.00  0.00    +0.067 A 
ATOM     16  C   UNL     1      22.410   2.036  49.000  1.00  0.00    -0.008 A 
ATOM     17  C   UNL     1      21.756   1.048  49.799  1.00  0.00    +0.035 A 
ATOM     18  C   UNL     1      22.786   3.060  49.856  1.00  0.00    +0.109 A 
ATOM     19  N   UNL     1      22.404   2.683  51.122  1.00  0.00    -0.340 N 
ATOM     20  C   UNL     1      22.595   1.939  47.528  1.00  0.00    +0.048 C 
ATOM     21  H   UNL     1      22.621   3.200  51.960  1.00  0.00    +0.168 HD
BRANCH  18  22
ATOM     22  N   UNL     1      23.446   4.239  49.684  1.00  0.00    -0.353 N 
ATOM     23  C   UNL     1      22.753   5.426  49.140  1.00  0.00    +0.146 C 
ATOM     24  C   UNL     1      24.914   4.298  49.615  1.00  0.00    +0.146 C 
ATOM     25  C   UNL     1      23.660   6.183  48.158  1.00  0.00    +0.181 C 
ATOM     26  C   UNL     1      25.386   5.753  49.762  1.00  0.00    +0.181 C 
ATOM     27  O   UNL     1      24.892   6.633  48.740  1.00  0.00    -0.378 OA
ENDBRANCH  18  22
ENDBRANCH   1  15
BRANCH   8  28
ATOM     28  C   UNL     1      16.751   1.018  50.358  1.00  0.00    +0.079 C 
ATOM     29  C   UNL     1      15.694   1.752  50.806  1.00  0.00    +0.153 C 
ATOM     30  C   UNL     1      14.395   1.575  50.252  1.00  0.00    +0.113 C 
ATOM     31  C   UNL     1      15.834   2.709  51.852  1.00  0.00    +0.113 C 
ATOM     32  N   UNL     1      13.344   1.408  49.789  1.00  0.00    -0.192 NA
ATOM     33  N   UNL     1      16.002   3.466  52.715  1.00  0.00    -0.192 NA
BRANCH  28  34
ATOM     34  N   UNL     1      16.680   0.052  49.355  1.00  0.00    -0.396 N 
ATOM     35  H   UNL     1      16.885  -0.897  49.670  1.00  0.00    +0.156 HD
ATOM     36  H   UNL     1      15.824   0.063  48.798  1.00  0.00    +0.156 HD
ENDBRANCH  28  34
ENDBRANCH   8  28
TORSDOF 4
ENDMDL
MODEL 6
REMARK VINA RESULT:    -7.344      3.167      4.970
REMARK INTER + INTRA:         -10.436
REMARK INTER:                  -8.846
REMARK INTRA:                  -1.590
REMARK UNBOUND:                -1.590
REMARK SMILES Cc1cc(-c2ncnc3c2C(=C(C#N)C(N)=C(C#N)C#N)C(=O)N3)[nH]c1N1CCOCC1
REMARK SMILES IDX 5 1 6 2 7 3 8 4 9 5 10 6 11 7 12 8 13 9 14 10 22 11 23 12
REMARK SMILES IDX 24 13 4 15 2 16 3 17 26 18 25 19 1 20 27 22 28 23 32 24
REMARK SMILES IDX 29 25 31 26 30 27 15 28 17 29 18 30 20 31 19 32 21 33 16 34
REMARK H PARENT 24 14 25 21 16 35 16 36
ROOT
ATOM      1  C   UNL     1      21.759   0.322  52.706  1.00  0.00    +0.100 A 
ATOM      2  N   UNL     1      21.396  -0.753  53.447  1.00  0.00    -0.234 NA
ATOM      3  C   UNL     1      22.346  -1.313  54.220  1.00  0.00    +0.225 A 
ATOM      4  N   UNL     1      23.609  -0.891  54.342  1.00  0.00    -0.218 NA
ATOM      5  C   UNL     1      23.901   0.137  53.546  1.00  0.00    +0.145 A 
ATOM      6  C   UNL     1      23.057   0.754  52.639  1.00  0.00    +0.059 A 
ATOM      7  C   UNL     1      23.851   1.791  51.968  1.00  0.00    +0.073 C 
ATOM      8  C   UNL     1      23.691   2.429  50.788  1.00  0.00    +0.091 C 
ATOM      9  C   UNL     1      22.641   2.086  49.876  1.00  0.00    +0.102 C 
ATOM     10  N   UNL     1      21.861   1.780  49.074  1.00  0.00    -0.192 NA
ATOM     11  C   UNL     1      25.148   1.872  52.736  1.00  0.00    +0.259 C 
ATOM     12  O   UNL     1      26.047   2.678  52.595  1.00  0.00    -0.269 OA
ATOM     13  N   UNL     1      25.117   0.802  53.600  1.00  0.00    -0.306 N 
ATOM     14  H   UNL     1      25.852   0.558  54.246  1.00  0.00    +0.171 HD
ENDROOT
BRANCH   1  15
ATOM     15  C   UNL     1      20.620   1.037  52.156  1.00  0.00    +0.067 A 
ATOM     16  C   UNL     1      18.940   2.488  51.628  1.00  0.00    -0.008 A 
ATOM     17  C   UNL     1      20.127   2.304  52.401  1.00  0.00    +0.035 A 
ATOM     18  C   UNL     1      18.724   1.307  50.934  1.00  0.00    +0.109 A 
ATOM     19  N   UNL     1      19.723   0.438  51.306  1.00  0.00    -0.340 N 
ATOM     20  C   UNL     1      18.146   3.744  51.593  1.00  0.00    +0.048 C 
ATOM     21  H   UNL     1      19.775  -0.527  51.019  1.00  0.00    +0.168 HD
BRANCH  18  22
ATOM     22  N   UNL     1      17.762   0.882  50.069  1.00  0.00    -0.353 N 
ATOM     23  C   UNL     1      17.284   1.754  48.976  1.00  0.00    +0.146 C 
ATOM     24  C   UNL     1      16.866  -0.235  50.401  1.00  0.00    +0.146 C 
ATOM     25  C   UNL     1      15.761   1.635  48.810  1.00  0.00    +0.181 C 
ATOM     26  C   UNL     1      16.130  -0.709  49.138  1.00  0.00    +0.181 C 
ATOM     27  O   UNL     1      15.315   0.301  48.523  1.00  0.00    -0.378 OA
ENDBRANCH  18  22
ENDBRANCH   1  15
BRANCH   8  28
ATOM     28  C   UNL     1      24.650   3.426  50.257  1.00  0.00    +0.079 C 
ATOM     29  C   UNL     1      24.452   4.760  50.447  1.00  0.00    +0.153 C 
ATOM     30  C   UNL     1      25.376   5.716  49.939  1.00  0.00    +0.113 C 
ATOM     31  C   UNL     1      23.311   5.258  51.140  1.00  0.00    +0.113 C 
ATOM     32  N   UNL     1      26.142   6.476  49.511  1.00  0.00    -0.192 NA
ATOM     33  N   UNL     1      22.358   5.610  51.701  1.00  0.00    -0.192 NA
BRANCH  28  34
ATOM     34  N   UNL     1      25.731   2.872  49.570  1.00  0.00    -0.396 N 
ATOM     35  H   UNL     1      25.509   2.022  49.052  1.00  0.00    +0.156 HD
ATOM     36  H   UNL     1      26.251   3.522  48.979  1.00  0.00    +0.156 HD
ENDBRANCH  28  34
ENDBRANCH   8  28
TORSDOF 4
ENDMDL
MODEL 7
REMARK VINA RESULT:    -7.156      2.675      6.824
REMARK INTER + INTRA:         -10.211
REMARK INTER:                  -9.155
REMARK INTRA:                  -1.056
REMARK UNBOUND:                -1.590
REMARK SMILES Cc1cc(-c2ncnc3c2C(=C(C#N)C(N)=C(C#N)C#N)C(=O)N3)[nH]c1N1CCOCC1
REMARK SMILES IDX 5 1 6 2 7 3 8 4 9 5 10 6 11 7 12 8 13 9 14 10 22 11 23 12
REMARK SMILES IDX 24 13 4 15 2 16 3 17 26 18 25 19 1 20 27 22 28 23 32 24
REMARK SMILES IDX 29 25 31 26 30 27 15 28 17 29 18 30 20 31 19 32 21 33 16 34
REMARK H PARENT 24 14 25 21 16 35 16 36
ROOT
ATOM      1  C   UNL     1      21.478   1.864  50.576  1.00  0.00    +0.100 A 
ATOM      2  N   UNL     1      20.373   1.095  50.416  1.00  0.00    -0.234 NA
ATOM      3  C   UNL     1      19.568   1.390  49.378  1.00  0.00    +0.225 A 
ATOM      4  N   UNL     1      19.770   2.357  48.477  1.00  0.00    -0.218 NA
ATOM      5  C   UNL     1      20.847   3.099  48.731  1.00  0.00    +0.145 A 
ATOM      6  C   UNL     1      21.712   2.970  49.803  1.00  0.00    +0.059 A 
ATOM      7  C   UNL     1      22.704   4.045  49.671  1.00  0.00    +0.073 C 
ATOM      8  C   UNL     1      23.526   4.631  50.569  1.00  0.00    +0.091 C 
ATOM      9  C   UNL     1      23.486   4.302  51.962  1.00  0.00    +0.102 C 
ATOM     10  N   UNL     1      23.424   4.129  53.108  1.00  0.00    -0.192 NA
ATOM     11  C   UNL     1      22.472   4.648  48.306  1.00  0.00    +0.259 C 
ATOM     12  O   UNL     1      23.143   5.488  47.741  1.00  0.00    -0.269 OA
ATOM     13  N   UNL     1      21.303   4.076  47.860  1.00  0.00    -0.306 N 
ATOM     14  H   UNL     1      20.857   4.283  46.979  1.00  0.00    +0.171 HD
ENDROOT
BRANCH   1  15
ATOM     15  C   UNL     1      22.432   1.291  51.511  1.00  0.00    +0.067 A 
ATOM     16  C   UNL     1      23.535   0.281  53.234  1.00  0.00    -0.008 A 
ATOM     17  C   UNL     1      22.254   0.540  52.657  1.00  0.00    +0.035 A 
ATOM     18  C   UNL     1      24.474   0.903  52.425  1.00  0.00    +0.109 A 
ATOM     19  N   UNL     1      23.780   1.540  51.424  1.00  0.00    -0.340 N 
ATOM     20  C   UNL     1      23.757  -0.534  54.458  1.00  0.00    +0.048 C 
ATOM     21  H   UNL     1      24.199   2.140  50.731  1.00  0.00    +0.168 HD
BRANCH  18  22
ATOM     22  N   UNL     1      25.830   1.022  52.472  1.00  0.00    -0.353 N 
ATOM     23  C   UNL     1      26.706  -0.108  52.097  1.00  0.00    +0.146 C 
ATOM     24  C   UNL     1      26.485   2.069  53.270  1.00  0.00    +0.146 C 
ATOM     25  C   UNL     1      27.905  -0.207  53.052  1.00  0.00    +0.181 C 
ATOM     26  C   UNL     1      27.966   2.181  52.873  1.00  0.00    +0.181 C 
ATOM     27  O   UNL     1      28.718   0.975  53.082  1.00  0.00    -0.378 OA
ENDBRANCH  18  22
ENDBRANCH   1  15
BRANCH   8  28
ATOM     28  C   UNL     1      24.432   5.756  50.240  1.00  0.00    +0.079 C 
ATOM     29  C   UNL     1      25.692   5.529  49.775  1.00  0.00    +0.153 C 
ATOM     30  C   UNL     1      26.560   6.611  49.456  1.00  0.00    +0.113 C 
ATOM     31  C   UNL     1      26.203   4.210  49.606  1.00  0.00    +0.113 C 
ATOM     32  N   UNL     1      27.250   7.511  49.208  1.00  0.00    -0.192 NA
ATOM     33  N   UNL     1      26.573   3.115  49.499  1.00  0.00    -0.192 NA
BRANCH  28  34
ATOM     34  N   UNL     1      23.878   7.019  50.449  1.00  0.00    -0.396 N 
ATOM     35  H   UNL     1      22.950   7.006  50.873  1.00  0.00    +0.156 HD
ATOM     36  H   UNL     1      24.480   7.685  50.937  1.00  0.00    +0.156 HD
ENDBRANCH  28  34
ENDBRANCH   8  28
TORSDOF 4
ENDMDL
MODEL 8
REMARK VINA RESULT:    -6.921      3.706      6.402
REMARK INTER + INTRA:          -9.927
REMARK INTER:                  -8.762
REMARK INTRA:                  -1.165
REMARK UNBOUND:                -1.590
REMARK SMILES Cc1cc(-c2ncnc3c2C(=C(C#N)C(N)=C(C#N)C#N)C(=O)N3)[nH]c1N1CCOCC1
REMARK SMILES IDX 5 1 6 2 7 3 8 4 9 5 10 6 11 7 12 8 13 9 14 10 22 11 23 12
REMARK SMILES IDX 24 13 4 15 2 16 3 17 26 18 25 19 1 20 27 22 28 23 32 24
REMARK SMILES IDX 29 25 31 26 30 27 15 28 17 29 18 30 20 31 19 32 21 33 16 34
REMARK H PARENT 24 14 25 21 16 35 16 36
ROOT
ATOM      1  C   UNL     1      19.955   2.667  48.973  1.00  0.00    +0.100 A 
ATOM      2  N   UNL     1      19.227   2.862  47.846  1.00  0.00    -0.234 NA
ATOM      3  C   UNL     1      19.880   3.338  46.770  1.00  0.00    +0.225 A 
ATOM      4  N   UNL     1      21.187   3.612  46.702  1.00  0.00    -0.218 NA
ATOM      5  C   UNL     1      21.823   3.442  47.861  1.00  0.00    +0.145 A 
ATOM      6  C   UNL     1      21.267   3.048  49.065  1.00  0.00    +0.059 A 
ATOM      7  C   UNL     1      22.356   3.060  50.051  1.00  0.00    +0.073 C 
ATOM      8  C   UNL     1      22.352   3.131  51.400  1.00  0.00    +0.091 C 
ATOM      9  C   UNL     1      21.143   3.309  52.147  1.00  0.00    +0.102 C 
ATOM     10  N   UNL     1      20.199   3.540  52.781  1.00  0.00    -0.192 NA
ATOM     11  C   UNL     1      23.623   3.263  49.256  1.00  0.00    +0.259 C 
ATOM     12  O   UNL     1      24.769   3.219  49.659  1.00  0.00    -0.269 OA
ATOM     13  N   UNL     1      23.199   3.559  47.981  1.00  0.00    -0.306 N 
ATOM     14  H   UNL     1      23.806   3.769  47.204  1.00  0.00    +0.171 HD
ENDROOT
BRANCH   1  15
ATOM     15  C   UNL     1      19.252   1.874  49.967  1.00  0.00    +0.067 A 
ATOM     16  C   UNL     1      18.549   0.362  51.526  1.00  0.00    -0.008 A 
ATOM     17  C   UNL     1      19.663   0.817  50.755  1.00  0.00    +0.035 A 
ATOM     18  C   UNL     1      17.466   1.153  51.171  1.00  0.00    +0.109 A 
ATOM     19  N   UNL     1      17.907   2.022  50.201  1.00  0.00    -0.340 N 
ATOM     20  C   UNL     1      18.610  -0.737  52.524  1.00  0.00    +0.048 C 
ATOM     21  H   UNL     1      17.313   2.665  49.699  1.00  0.00    +0.168 HD
BRANCH  18  22
ATOM     22  N   UNL     1      16.157   1.184  51.547  1.00  0.00    -0.353 N 
ATOM     23  C   UNL     1      15.141   0.388  50.827  1.00  0.00    +0.146 C 
ATOM     24  C   UNL     1      15.615   2.281  52.363  1.00  0.00    +0.146 C 
ATOM     25  C   UNL     1      13.843   1.191  50.655  1.00  0.00    +0.181 C 
ATOM     26  C   UNL     1      14.234   1.891  52.912  1.00  0.00    +0.181 C 
ATOM     27  O   UNL     1      13.258   1.616  51.895  1.00  0.00    -0.378 OA
ENDBRANCH  18  22
ENDBRANCH   1  15
BRANCH   8  28
ATOM     28  C   UNL     1      23.583   3.183  52.223  1.00  0.00    +0.079 C 
ATOM     29  C   UNL     1      24.078   2.060  52.814  1.00  0.00    +0.153 C 
ATOM     30  C   UNL     1      25.263   2.112  53.601  1.00  0.00    +0.113 C 
ATOM     31  C   UNL     1      23.429   0.799  52.690  1.00  0.00    +0.113 C 
ATOM     32  N   UNL     1      26.228   2.180  54.242  1.00  0.00    -0.192 NA
ATOM     33  N   UNL     1      22.854  -0.201  52.567  1.00  0.00    -0.192 NA
BRANCH  28  34
ATOM     34  N   UNL     1      24.154   4.452  52.321  1.00  0.00    -0.396 N 
ATOM     35  H   UNL     1      23.735   5.151  51.707  1.00  0.00    +0.156 HD
ATOM     36  H   UNL     1      24.239   4.820  53.270  1.00  0.00    +0.156 HD
ENDBRANCH  28  34
ENDBRANCH   8  28
TORSDOF 4
ENDMDL
MODEL 9
REMARK VINA RESULT:    -6.820      2.555      8.475
REMARK INTER + INTRA:          -9.806
REMARK INTER:                  -8.763
REMARK INTRA:                  -1.043
REMARK UNBOUND:                -1.590
REMARK SMILES Cc1cc(-c2ncnc3c2C(=C(C#N)C(N)=C(C#N)C#N)C(=O)N3)[nH]c1N1CCOCC1
REMARK SMILES IDX 5 1 6 2 7 3 8 4 9 5 10 6 11 7 12 8 13 9 14 10 22 11 23 12
REMARK SMILES IDX 24 13 4 15 2 16 3 17 26 18 25 19 1 20 27 22 28 23 32 24
REMARK SMILES IDX 29 25 31 26 30 27 15 28 17 29 18 30 20 31 19 32 21 33 16 34
REMARK H PARENT 24 14 25 21 16 35 16 36
ROOT
ATOM      1  C   UNL     1      22.547   4.282  51.198  1.00  0.00    +0.100 A 
ATOM      2  N   UNL     1      23.547   5.110  51.590  1.00  0.00    -0.234 NA
ATOM      3  C   UNL     1      23.417   6.414  51.283  1.00  0.00    +0.225 A 
ATOM      4  N   UNL     1      22.380   6.973  50.649  1.00  0.00    -0.218 NA
ATOM      5  C   UNL     1      21.465   6.089  50.253  1.00  0.00    +0.145 A 
ATOM      6  C   UNL     1      21.509   4.716  50.417  1.00  0.00    +0.059 A 
ATOM      7  C   UNL     1      20.305   4.179  49.769  1.00  0.00    +0.073 C 
ATOM      8  C   UNL     1      20.005   2.949  49.298  1.00  0.00    +0.091 C 
ATOM      9  C   UNL     1      20.964   1.885  49.288  1.00  0.00    +0.102 C 
ATOM     10  N   UNL     1      21.735   1.026  49.182  1.00  0.00    -0.192 NA
ATOM     11  C   UNL     1      19.454   5.380  49.432  1.00  0.00    +0.259 C 
ATOM     12  O   UNL     1      18.321   5.389  48.992  1.00  0.00    -0.269 OA
ATOM     13  N   UNL     1      20.259   6.468  49.683  1.00  0.00    -0.306 N 
ATOM     14  H   UNL     1      19.993   7.430  49.539  1.00  0.00    +0.171 HD
ENDROOT
BRANCH   1  15
ATOM     15  C   UNL     1      22.618   2.976  51.830  1.00  0.00    +0.067 A 
ATOM     16  C   UNL     1      22.273   1.015  52.945  1.00  0.00    -0.008 A 
ATOM     17  C   UNL     1      21.651   2.194  52.430  1.00  0.00    +0.035 A 
ATOM     18  C   UNL     1      23.626   1.117  52.659  1.00  0.00    +0.109 A 
ATOM     19  N   UNL     1      23.811   2.325  52.029  1.00  0.00    -0.340 N 
ATOM     20  C   UNL     1      21.547  -0.089  53.625  1.00  0.00    +0.048 C 
ATOM     21  H   UNL     1      24.710   2.703  51.774  1.00  0.00    +0.168 HD
BRANCH  18  22
ATOM     22  N   UNL     1      24.706   0.326  52.911  1.00  0.00    -0.353 N 
ATOM     23  C   UNL     1      24.869  -0.344  54.218  1.00  0.00    +0.146 C 
ATOM     24  C   UNL     1      25.936   0.425  52.112  1.00  0.00    +0.146 C 
ATOM     25  C   UNL     1      26.335  -0.295  54.676  1.00  0.00    +0.181 C 
ATOM     26  C   UNL     1      26.837  -0.790  52.386  1.00  0.00    +0.181 C 
ATOM     27  O   UNL     1      27.247  -0.915  53.757  1.00  0.00    -0.378 OA
ENDBRANCH  18  22
ENDBRANCH   1  15
BRANCH   8  28
ATOM     28  C   UNL     1      18.730   2.619  48.618  1.00  0.00    +0.079 C 
ATOM     29  C   UNL     1      17.680   2.098  49.313  1.00  0.00    +0.153 C 
ATOM     30  C   UNL     1      16.456   1.785  48.659  1.00  0.00    +0.113 C 
ATOM     31  C   UNL     1      17.765   1.827  50.709  1.00  0.00    +0.113 C 
ATOM     32  N   UNL     1      15.469   1.533  48.102  1.00  0.00    -0.192 NA
ATOM     33  N   UNL     1      17.892   1.613  51.842  1.00  0.00    -0.192 NA
BRANCH  28  34
ATOM     34  N   UNL     1      18.723   2.889  47.250  1.00  0.00    -0.396 N 
ATOM     35  H   UNL     1      19.644   3.076  46.853  1.00  0.00    +0.156 HD
ATOM     36  H   UNL     1      18.221   2.210  46.674  1.00  0.00    +0.156 HD
ENDBRANCH  28  34
ENDBRANCH   8  28
TORSDOF 4
ENDMDL
