REMARK SMILES Cc1cccc(-c2[nH]c(-c3ccc(O)c([N+](=O)[O-])c3)cc2C)c1
REMARK SMILES IDX 10 1 11 2 12 3 13 4 15 5 19 6 9 7 7 8 8 9 21 10 20 11 22 13
REMARK SMILES IDX 6 14 2 15 3 16 23 17 4 18 5 19 1 20 16 21 17 22 18 23 14 24
REMARK H PARENT 8 12 14 25
ROOT
ATOM      1  C   UNL     1       2.550   0.499   0.024  1.00  0.00    +0.005 A 
ATOM      2  C   UNL     1       2.697   1.593  -0.846  1.00  0.00    +0.014 A 
ATOM      3  C   UNL     1       3.965   2.034  -1.249  1.00  0.00    +0.054 A 
ATOM      4  C   UNL     1       5.105   1.382  -0.788  1.00  0.00    +0.194 A 
ATOM      5  C   UNL     1       4.959   0.293   0.070  1.00  0.00    +0.311 A 
ATOM      6  C   UNL     1       3.699  -0.151   0.488  1.00  0.00    +0.100 A 
ENDROOT
BRANCH   1   7
ATOM      7  C   UNL     1       1.227   0.045   0.450  1.00  0.00    +0.046 A 
ATOM      8  C   UNL     1      -0.988  -0.429   0.279  1.00  0.00    +0.049 A 
ATOM      9  N   UNL     1       0.124   0.053  -0.373  1.00  0.00    -0.354 N 
ATOM     10  C   UNL     1      -0.590  -0.773   1.563  1.00  0.00    -0.025 A 
ATOM     11  C   UNL     1       0.800  -0.477   1.657  1.00  0.00    +0.032 A 
ATOM     12  H   UNL     1       0.120   0.370  -1.332  1.00  0.00    +0.167 HD
ATOM     13  C   UNL     1      -1.430  -1.354   2.645  1.00  0.00    +0.047 C 
BRANCH   8  14
ATOM     14  C   UNL     1      -2.292  -0.503  -0.378  1.00  0.00    -0.002 A 
ATOM     15  C   UNL     1      -4.670   0.038  -0.417  1.00  0.00    -0.050 A 
ATOM     16  C   UNL     1      -4.789  -0.620  -1.646  1.00  0.00    +0.003 A 
ATOM     17  C   UNL     1      -3.414   0.102   0.204  1.00  0.00    +0.013 A 
ATOM     18  C   UNL     1      -3.678  -1.226  -2.232  1.00  0.00    +0.001 A 
ATOM     19  C   UNL     1      -2.434  -1.169  -1.601  1.00  0.00    +0.010 A 
ATOM     20  C   UNL     1      -5.856   0.719   0.199  1.00  0.00    +0.044 C 
ENDBRANCH   8  14
ENDBRANCH   1   7
BRANCH   5  21
ATOM     21  N   UNL     1       6.124  -0.417   0.552  1.00  0.00    +0.066 N 
ATOM     22  O   UNL     1       6.312  -0.416   1.778  1.00  0.00    -0.258 OA
ATOM     23  O   UNL     1       6.812  -1.022  -0.282  1.00  0.00    -0.258 OA
ENDBRANCH   5  21
BRANCH   4  24
ATOM     24  O   UNL     1       6.340   1.826  -1.155  1.00  0.00    -0.502 OA
ATOM     25  H   UNL     1       6.256   2.553  -1.796  1.00  0.00    +0.293 HD
ENDBRANCH   4  24
TORSDOF 4
