REMARK SMILES Cc1cccc(C=C2C(=O)N(C)c3ncnc(N4CCOCC4)c32)c1
REMARK SMILES IDX 7 1 8 2 9 3 10 4 11 5 12 6 13 7 14 8 15 9 16 10 17 11 24 12
REMARK SMILES IDX 6 13 2 14 3 15 25 16 4 17 5 18 1 19 18 20 19 21 23 22 20 23
REMARK SMILES IDX 22 24 21 25
REMARK H PARENT
ROOT
ATOM      1  C   UNL     1       0.888  -0.273   0.075  1.00  0.00    +0.023 C 
ATOM      2  C   UNL     1       0.183   0.861  -0.066  1.00  0.00    +0.055 C 
ATOM      3  C   UNL     1       0.731   2.246  -0.310  1.00  0.00    +0.260 C 
ATOM      4  O   UNL     1       1.888   2.571  -0.492  1.00  0.00    -0.269 OA
ATOM      5  N   UNL     1      -0.382   3.072  -0.278  1.00  0.00    -0.295 N 
ATOM      6  C   UNL     1      -0.371   4.498  -0.455  1.00  0.00    +0.155 C 
ATOM      7  C   UNL     1      -1.560   2.345  -0.076  1.00  0.00    +0.148 A 
ATOM      8  N   UNL     1      -2.776   2.894  -0.010  1.00  0.00    -0.218 NA
ATOM      9  C   UNL     1      -3.751   2.000   0.179  1.00  0.00    +0.226 A 
ATOM     10  N   UNL     1      -3.604   0.663   0.281  1.00  0.00    -0.219 NA
ATOM     11  C   UNL     1      -2.354   0.154   0.194  1.00  0.00    +0.142 A 
ATOM     12  C   UNL     1      -1.275   0.995   0.030  1.00  0.00    +0.073 A 
ENDROOT
BRANCH   1  13
ATOM     13  C   UNL     1       2.345  -0.417   0.006  1.00  0.00    -0.025 A 
ATOM     14  C   UNL     1       4.571  -0.020   0.915  1.00  0.00    -0.051 A 
ATOM     15  C   UNL     1       5.118  -0.787  -0.120  1.00  0.00    +0.003 A 
ATOM     16  C   UNL     1       3.182   0.166   0.966  1.00  0.00    +0.011 A 
ATOM     17  C   UNL     1       4.290  -1.379  -1.073  1.00  0.00    +0.001 A 
ATOM     18  C   UNL     1       2.908  -1.200  -1.007  1.00  0.00    +0.008 A 
ATOM     19  C   UNL     1       5.461   0.654   1.916  1.00  0.00    +0.044 C 
ENDBRANCH   1  13
BRANCH  11  20
ATOM     20  N   UNL     1      -2.188  -1.247   0.223  1.00  0.00    -0.351 N 
ATOM     21  C   UNL     1      -2.211  -1.773  -1.168  1.00  0.00    +0.146 C 
ATOM     22  C   UNL     1      -3.163  -1.933   1.109  1.00  0.00    +0.146 C 
ATOM     23  C   UNL     1      -2.579  -3.265  -1.166  1.00  0.00    +0.181 C 
ATOM     24  C   UNL     1      -4.326  -2.542   0.312  1.00  0.00    +0.181 C 
ATOM     25  O   UNL     1      -3.896  -3.519  -0.652  1.00  0.00    -0.378 OA
ENDBRANCH  11  20
TORSDOF 2
