REMARK SMILES CN(C(=O)c1ccccn1)c1ccc(-c2ccc(O)c([N+](=O)[O-])c2)[nH]1
REMARK SMILES IDX 11 1 12 2 13 3 14 4 25 5 2 7 1 8 3 9 4 10 5 11 6 12 10 13
REMARK SMILES IDX 7 14 9 15 8 16 15 17 16 18 24 19 17 20 20 21 18 22 21 23
REMARK SMILES IDX 22 24 23 25 19 26
REMARK H PARENT 25 6 19 27
ROOT
ATOM      1  C   UNL     1      -0.672  -1.488  -0.021  1.00  0.00    +0.113 A 
ATOM      2  C   UNL     1      -0.201  -2.760  -0.274  1.00  0.00    +0.047 A 
ATOM      3  C   UNL     1       1.203  -2.677  -0.457  1.00  0.00    +0.030 A 
ATOM      4  C   UNL     1       1.583  -1.354  -0.309  1.00  0.00    +0.047 A 
ATOM      5  N   UNL     1       0.423  -0.655  -0.060  1.00  0.00    -0.341 N 
ATOM      6  H   UNL     1       0.348   0.345   0.083  1.00  0.00    +0.168 HD
ENDROOT
BRANCH   1   7
ATOM      7  N   UNL     1      -1.978  -1.026   0.227  1.00  0.00    -0.296 N 
ATOM      8  C   UNL     1      -3.089  -1.976   0.298  1.00  0.00    +0.155 C 
BRANCH   7   9
ATOM      9  C   UNL     1      -2.174   0.368   0.396  1.00  0.00    +0.277 C 
ATOM     10  O   UNL     1      -1.248   1.178   0.534  1.00  0.00    -0.267 OA
BRANCH   9  11
ATOM     11  C   UNL     1      -3.564   0.938   0.413  1.00  0.00    +0.128 A 
ATOM     12  C   UNL     1      -3.803   2.093   1.155  1.00  0.00    +0.034 A 
ATOM     13  N   UNL     1      -4.516   0.340  -0.351  1.00  0.00    -0.251 NA
ATOM     14  C   UNL     1      -5.079   2.648   1.132  1.00  0.00    +0.004 A 
ATOM     15  C   UNL     1      -5.742   0.907  -0.355  1.00  0.00    +0.112 A 
ATOM     16  C   UNL     1      -6.069   2.045   0.364  1.00  0.00    +0.020 A 
ENDBRANCH   9  11
ENDBRANCH   7   9
ENDBRANCH   1   7
BRANCH   4  17
ATOM     17  C   UNL     1       2.900  -0.720  -0.397  1.00  0.00    +0.005 A 
ATOM     18  C   UNL     1       3.898  -1.271  -1.219  1.00  0.00    +0.014 A 
ATOM     19  C   UNL     1       3.198   0.437   0.333  1.00  0.00    +0.100 A 
ATOM     20  C   UNL     1       5.168  -0.687  -1.318  1.00  0.00    +0.054 A 
ATOM     21  C   UNL     1       4.470   1.015   0.221  1.00  0.00    +0.311 A 
ATOM     22  C   UNL     1       5.459   0.463  -0.591  1.00  0.00    +0.194 A 
BRANCH  21  23
ATOM     23  N   UNL     1       4.741   2.215   0.982  1.00  0.00    +0.066 N 
ATOM     24  O   UNL     1       4.694   2.117   2.217  1.00  0.00    -0.258 OA
ATOM     25  O   UNL     1       4.941   3.261   0.349  1.00  0.00    -0.258 OA
ENDBRANCH  21  23
BRANCH  22  26
ATOM     26  O   UNL     1       6.702   1.018  -0.661  1.00  0.00    -0.502 OA
ATOM     27  H   UNL     1       7.240   0.543  -1.318  1.00  0.00    +0.293 HD
ENDBRANCH  22  26
ENDBRANCH   4  17
TORSDOF 6
