REMARK SMILES Cc1cccc(Cl)c1N1CCC[C@@H]1OC[C@H](O)C[N+](C)(C)C
REMARK SMILES IDX 15 1 14 2 13 3 9 4 10 5 11 6 12 7 8 8 2 9 3 10 4 11 6 12
REMARK SMILES IDX 5 13 1 14 7 15 16 16 17 17 18 19 19 20 20 21 21 22 22 23
REMARK H PARENT 17 18
ROOT
ATOM      1  C   UNL     1       0.672   0.590  -0.453  1.00  0.00    +0.200 C 
ENDROOT
BRANCH   1   2
ATOM      2  O   UNL     1       0.112   0.025  -1.639  1.00  0.00    -0.355 OA
BRANCH   2   3
ATOM      3  C   UNL     1      -1.277   0.337  -1.798  1.00  0.00    +0.214 C 
ATOM      4  N   UNL     1      -2.056  -0.510  -0.902  1.00  0.00    -0.345 N 
ATOM      5  C   UNL     1      -2.744  -1.568  -1.654  1.00  0.00    +0.119 C 
ATOM      6  C   UNL     1      -2.034  -1.585  -3.002  1.00  0.00    +0.026 C 
ATOM      7  C   UNL     1      -1.670  -0.121  -3.207  1.00  0.00    +0.057 C 
BRANCH   4   8
ATOM      8  C   UNL     1      -2.793   0.027   0.159  1.00  0.00    +0.061 A 
ATOM      9  C   UNL     1      -3.756   1.056   0.018  1.00  0.00    -0.026 A 
ATOM     10  C   UNL     1      -4.419   1.552   1.161  1.00  0.00    +0.005 A 
ATOM     11  C   UNL     1      -4.175   1.034   2.428  1.00  0.00    +0.002 A 
ATOM     12  C   UNL     1      -2.591  -0.504   1.463  1.00  0.00    +0.064 A 
ATOM     13  C   UNL     1      -3.267  -0.005   2.579  1.00  0.00    +0.023 A 
ATOM     14  C   UNL     1      -4.133   1.678  -1.301  1.00  0.00    +0.046 C 
ATOM     15 Cl   UNL     1      -1.449  -1.786   1.751  1.00  0.00    -0.082 Cl
ENDBRANCH   4   8
ENDBRANCH   2   3
ENDBRANCH   1   2
BRANCH   1  16
ATOM     16  C   UNL     1       2.040  -0.073  -0.254  1.00  0.00    +0.195 C 
BRANCH  16  17
ATOM     17  O   UNL     1       1.871  -1.497  -0.302  1.00  0.00    -0.385 OA
ATOM     18  H   UNL     1       1.137  -1.647  -0.937  1.00  0.00    +0.211 HD
ENDBRANCH  16  17
BRANCH  16  19
ATOM     19  C   UNL     1       2.642   0.340   1.101  1.00  0.00    +0.297 C 
BRANCH  19  20
ATOM     20  N   UNL     1       4.113  -0.117   1.330  1.00  0.00    -0.329 N 
ATOM     21  C   UNL     1       4.251  -1.634   1.196  1.00  0.00    +0.334 C 
ATOM     22  C   UNL     1       5.060   0.564   0.358  1.00  0.00    +0.334 C 
ATOM     23  C   UNL     1       4.504   0.272   2.755  1.00  0.00    +0.334 C 
ENDBRANCH  19  20
ENDBRANCH  16  19
ENDBRANCH   1  16
TORSDOF 7
