REMARK SMILES CN(CC/N=N/Nc1ccc2ncnc(-c3cccc(Cl)c3)c2c1)c1ccccn1
REMARK SMILES IDX 5 1 6 2 4 3 3 4 2 5 1 6 25 7 26 8 30 9 27 10 29 11 28 12
REMARK SMILES IDX 7 13 8 15 9 16 24 17 10 18 23 19 11 20 15 21 12 22 14 23
REMARK SMILES IDX 13 24 16 25 17 26 22 27 18 28 20 29 19 30 21 31
REMARK H PARENT 7 14
ROOT
ATOM      1  N   UNL     1       1.689  -0.401  -1.127  1.00  0.00    -0.169 NA
ATOM      2  N   UNL     1       0.927  -1.267  -0.659  1.00  0.00    -0.075 NA
ENDROOT
BRANCH   1   3
ATOM      3  C   UNL     1       3.046  -0.924  -1.369  1.00  0.00    +0.190 C 
BRANCH   3   4
ATOM      4  C   UNL     1       3.919  -0.781  -0.116  1.00  0.00    +0.143 C 
BRANCH   4   5
ATOM      5  N   UNL     1       4.242   0.635   0.148  1.00  0.00    -0.358 N 
ATOM      6  C   UNL     1       3.473   1.248   1.232  1.00  0.00    +0.145 C 
BRANCH   5   7
ATOM      7  C   UNL     1       5.616   0.929   0.205  1.00  0.00    +0.128 A 
ATOM      8  C   UNL     1       6.439   0.619  -0.882  1.00  0.00    +0.047 A 
ATOM      9  N   UNL     1       6.125   1.548   1.293  1.00  0.00    -0.239 NA
ATOM     10  C   UNL     1       7.799   0.923  -0.841  1.00  0.00    +0.005 A 
ATOM     11  C   UNL     1       7.447   1.835   1.315  1.00  0.00    +0.113 A 
ATOM     12  C   UNL     1       8.318   1.542   0.284  1.00  0.00    +0.020 A 
ENDBRANCH   5   7
ENDBRANCH   4   5
ENDBRANCH   3   4
ENDBRANCH   1   3
BRANCH   2  13
ATOM     13  N   UNL     1      -0.247  -0.642  -0.460  1.00  0.00    -0.260 N 
ATOM     14  H   UNL     1      -0.344   0.239  -0.954  1.00  0.00    +0.192 HD
BRANCH  13  15
ATOM     15  C   UNL     1      -1.417  -1.406  -0.326  1.00  0.00    +0.059 A 
ATOM     16  C   UNL     1      -1.400  -2.771  -0.045  1.00  0.00    +0.030 A 
ATOM     17  C   UNL     1      -2.662  -0.767  -0.354  1.00  0.00    +0.040 A 
ATOM     18  C   UNL     1      -2.594  -3.480   0.137  1.00  0.00    +0.031 A 
ATOM     19  C   UNL     1      -3.876  -1.482  -0.157  1.00  0.00    +0.029 A 
ATOM     20  C   UNL     1      -3.833  -2.861   0.077  1.00  0.00    +0.074 A 
ATOM     21  C   UNL     1      -5.169  -0.929  -0.182  1.00  0.00    +0.082 A 
ATOM     22  N   UNL     1      -4.930  -3.605   0.250  1.00  0.00    -0.236 NA
ATOM     23  N   UNL     1      -6.290  -1.669  -0.027  1.00  0.00    -0.236 NA
ATOM     24  C   UNL     1      -6.108  -2.974   0.184  1.00  0.00    +0.223 A 
BRANCH  21  25
ATOM     25  C   UNL     1      -5.437   0.504  -0.380  1.00  0.00    +0.002 A 
ATOM     26  C   UNL     1      -5.079   1.453   0.594  1.00  0.00    +0.010 A 
ATOM     27  C   UNL     1      -6.081   0.952  -1.544  1.00  0.00    +0.030 A 
ATOM     28  C   UNL     1      -5.337   2.812   0.402  1.00  0.00    +0.002 A 
ATOM     29  C   UNL     1      -6.337   2.310  -1.732  1.00  0.00    +0.041 A 
ATOM     30  C   UNL     1      -5.965   3.242  -0.766  1.00  0.00    +0.020 A 
ATOM     31 Cl   UNL     1      -7.117   2.841  -3.172  1.00  0.00    -0.084 Cl
ENDBRANCH  21  25
ENDBRANCH  13  15
ENDBRANCH   2  13
TORSDOF 7
