MODEL 1
REMARK VINA RESULT:    -7.524      0.000      0.000
REMARK INTER + INTRA:          -8.972
REMARK INTER:                  -9.283
REMARK INTRA:                   0.311
REMARK UNBOUND:                 0.311
REMARK SMILES N#CC(=Cc1cccc(Br)c1)C(N)=C(C#N)C(N)=C(C#N)C#N
REMARK SMILES IDX 12 1 14 2 15 3 16 4 3 5 1 6 2 7 4 8 5 9 6 10 11 11 7 12 9 13
REMARK SMILES IDX 8 14 10 15 13 16 17 19 19 20 20 21 22 22 21 23 23 24 18 25
REMARK H PARENT 13 17 13 18 18 26 18 27
ROOT
ATOM      1  C   UNL     1      23.473   3.712  51.436  1.00  0.00    +0.070 C 
ATOM      2  C   UNL     1      23.677   3.678  50.091  1.00  0.00    +0.101 C 
ATOM      3  C   UNL     1      22.989   2.742  49.247  1.00  0.00    +0.104 C 
ATOM      4  N   UNL     1      22.445   1.965  48.580  1.00  0.00    -0.192 NA
ENDROOT
BRANCH   1   5
ATOM      5  C   UNL     1      22.539   2.767  52.071  1.00  0.00    +0.077 C 
ATOM      6  N   UNL     1      20.115   3.614  52.436  1.00  0.00    -0.192 NA
ATOM      7  C   UNL     1      21.198   3.225  52.281  1.00  0.00    +0.101 C 
ATOM      8  C   UNL     1      22.957   1.536  52.429  1.00  0.00    +0.029 C 
BRANCH   8   9
ATOM      9  C   UNL     1      22.116   0.503  53.041  1.00  0.00    -0.023 A 
ATOM     10  C   UNL     1      22.608  -0.306  54.073  1.00  0.00    +0.008 A 
ATOM     11  C   UNL     1      20.796   0.338  52.605  1.00  0.00    +0.023 A 
ATOM     12  C   UNL     1      21.795  -1.282  54.652  1.00  0.00    +0.002 A 
ATOM     13  C   UNL     1      19.990  -0.638  53.190  1.00  0.00    +0.018 A 
ATOM     14  C   UNL     1      20.483  -1.451  54.210  1.00  0.00    +0.016 A 
ATOM     15 Br   UNL     1      18.210  -0.862  52.593  1.00  0.00    -0.051 Br
ENDBRANCH   8   9
ENDBRANCH   1   5
BRANCH   1  16
ATOM     16  N   UNL     1      24.097   4.594  52.309  1.00  0.00    -0.397 N 
ATOM     17  H   UNL     1      24.980   4.981  51.972  1.00  0.00    +0.156 HD
ATOM     18  H   UNL     1      23.514   5.287  52.767  1.00  0.00    +0.156 HD
ENDBRANCH   1  16
BRANCH   2  19
ATOM     19  C   UNL     1      24.622   4.582  49.403  1.00  0.00    +0.081 C 
ATOM     20  C   UNL     1      25.961   4.352  49.468  1.00  0.00    +0.153 C 
ATOM     21  C   UNL     1      26.499   3.267  50.218  1.00  0.00    +0.113 C 
ATOM     22  C   UNL     1      26.882   5.214  48.810  1.00  0.00    +0.113 C 
ATOM     23  N   UNL     1      26.894   2.390  50.868  1.00  0.00    -0.192 NA
ATOM     24  N   UNL     1      27.613   5.950  48.290  1.00  0.00    -0.192 NA
BRANCH  19  25
ATOM     25  N   UNL     1      24.024   5.631  48.715  1.00  0.00    -0.396 N 
ATOM     26  H   UNL     1      24.221   5.662  47.712  1.00  0.00    +0.156 HD
ATOM     27  H   UNL     1      23.044   5.830  48.920  1.00  0.00    +0.156 HD
ENDBRANCH  19  25
ENDBRANCH   2  19
TORSDOF 5
ENDMDL
MODEL 2
REMARK VINA RESULT:    -7.459      3.625      5.247
REMARK INTER + INTRA:          -8.892
REMARK INTER:                  -9.245
REMARK INTRA:                   0.353
REMARK UNBOUND:                 0.311
REMARK SMILES N#CC(=Cc1cccc(Br)c1)C(N)=C(C#N)C(N)=C(C#N)C#N
REMARK SMILES IDX 12 1 14 2 15 3 16 4 3 5 1 6 2 7 4 8 5 9 6 10 11 11 7 12 9 13
REMARK SMILES IDX 8 14 10 15 13 16 17 19 19 20 20 21 22 22 21 23 23 24 18 25
REMARK H PARENT 13 17 13 18 18 26 18 27
ROOT
ATOM      1  C   UNL     1      25.365   0.810  52.988  1.00  0.00    +0.070 C 
ATOM      2  C   UNL     1      25.936   0.059  53.967  1.00  0.00    +0.101 C 
ATOM      3  C   UNL     1      25.144  -0.680  54.910  1.00  0.00    +0.104 C 
ATOM      4  N   UNL     1      24.492  -1.252  55.681  1.00  0.00    -0.192 NA
ENDROOT
BRANCH   1   5
ATOM      5  C   UNL     1      23.899   0.900  52.877  1.00  0.00    +0.077 C 
ATOM      6  N   UNL     1      22.901   3.288  52.718  1.00  0.00    -0.192 NA
ATOM      7  C   UNL     1      23.336   2.214  52.792  1.00  0.00    +0.101 C 
ATOM      8  C   UNL     1      23.150  -0.221  52.861  1.00  0.00    +0.029 C 
BRANCH   8   9
ATOM      9  C   UNL     1      21.690  -0.260  52.727  1.00  0.00    -0.023 A 
ATOM     10  C   UNL     1      20.892  -0.833  53.725  1.00  0.00    +0.008 A 
ATOM     11  C   UNL     1      21.084   0.306  51.599  1.00  0.00    +0.023 A 
ATOM     12  C   UNL     1      19.502  -0.857  53.588  1.00  0.00    +0.002 A 
ATOM     13  C   UNL     1      19.696   0.278  51.471  1.00  0.00    +0.018 A 
ATOM     14  C   UNL     1      18.902  -0.302  52.459  1.00  0.00    +0.016 A 
ATOM     15 Br   UNL     1      18.882   1.036  49.942  1.00  0.00    -0.051 Br
ENDBRANCH   8   9
ENDBRANCH   1   5
BRANCH   1  16
ATOM     16  N   UNL     1      26.069   1.541  52.040  1.00  0.00    -0.397 N 
ATOM     17  H   UNL     1      26.974   1.148  51.776  1.00  0.00    +0.156 HD
ATOM     18  H   UNL     1      25.548   1.896  51.244  1.00  0.00    +0.156 HD
ENDBRANCH   1  16
BRANCH   2  19
ATOM     19  C   UNL     1      27.399  -0.046  54.144  1.00  0.00    +0.081 C 
ATOM     20  C   UNL     1      28.100  -1.013  53.493  1.00  0.00    +0.153 C 
ATOM     21  C   UNL     1      27.458  -1.967  52.652  1.00  0.00    +0.113 C 
ATOM     22  C   UNL     1      29.509  -1.126  53.654  1.00  0.00    +0.113 C 
ATOM     23  N   UNL     1      26.888  -2.743  52.004  1.00  0.00    -0.192 NA
ATOM     24  N   UNL     1      30.653  -1.215  53.827  1.00  0.00    -0.192 NA
BRANCH  19  25
ATOM     25  N   UNL     1      27.950   0.902  54.998  1.00  0.00    -0.396 N 
ATOM     26  H   UNL     1      28.855   1.276  54.706  1.00  0.00    +0.156 HD
ATOM     27  H   UNL     1      27.330   1.630  55.355  1.00  0.00    +0.156 HD
ENDBRANCH  19  25
ENDBRANCH   2  19
TORSDOF 5
ENDMDL
MODEL 3
REMARK VINA RESULT:    -7.414      3.313      7.388
REMARK INTER + INTRA:          -8.837
REMARK INTER:                  -8.787
REMARK INTRA:                  -0.049
REMARK UNBOUND:                 0.311
REMARK SMILES N#CC(=Cc1cccc(Br)c1)C(N)=C(C#N)C(N)=C(C#N)C#N
REMARK SMILES IDX 12 1 14 2 15 3 16 4 3 5 1 6 2 7 4 8 5 9 6 10 11 11 7 12 9 13
REMARK SMILES IDX 8 14 10 15 13 16 17 19 19 20 20 21 22 22 21 23 23 24 18 25
REMARK H PARENT 13 17 13 18 18 26 18 27
ROOT
ATOM      1  C   UNL     1      22.665   0.884  52.615  1.00  0.00    +0.070 C 
ATOM      2  C   UNL     1      21.385   1.267  52.867  1.00  0.00    +0.101 C 
ATOM      3  C   UNL     1      20.941   2.613  52.636  1.00  0.00    +0.104 C 
ATOM      4  N   UNL     1      20.602   3.710  52.469  1.00  0.00    -0.192 NA
ENDROOT
BRANCH   1   5
ATOM      5  C   UNL     1      23.648   1.857  52.108  1.00  0.00    +0.077 C 
ATOM      6  N   UNL     1      25.395   2.724  53.816  1.00  0.00    -0.192 NA
ATOM      7  C   UNL     1      24.616   2.346  53.043  1.00  0.00    +0.101 C 
ATOM      8  C   UNL     1      23.610   2.249  50.819  1.00  0.00    +0.029 C 
BRANCH   8   9
ATOM      9  C   UNL     1      24.548   3.188  50.193  1.00  0.00    -0.023 A 
ATOM     10  C   UNL     1      25.908   2.874  50.078  1.00  0.00    +0.008 A 
ATOM     11  C   UNL     1      24.074   4.402  49.684  1.00  0.00    +0.023 A 
ATOM     12  C   UNL     1      26.790   3.774  49.474  1.00  0.00    +0.002 A 
ATOM     13  C   UNL     1      24.961   5.294  49.082  1.00  0.00    +0.018 A 
ATOM     14  C   UNL     1      26.317   4.987  48.976  1.00  0.00    +0.016 A 
ATOM     15 Br   UNL     1      24.318   6.937  48.402  1.00  0.00    -0.051 Br
ENDBRANCH   8   9
ENDBRANCH   1   5
BRANCH   1  16
ATOM     16  N   UNL     1      23.159  -0.401  52.807  1.00  0.00    -0.397 N 
ATOM     17  H   UNL     1      23.396  -0.904  51.952  1.00  0.00    +0.156 HD
ATOM     18  H   UNL     1      23.847  -0.529  53.542  1.00  0.00    +0.156 HD
ENDBRANCH   1  16
BRANCH   2  19
ATOM     19  C   UNL     1      20.364   0.343  53.402  1.00  0.00    +0.081 C 
ATOM     20  C   UNL     1      19.371  -0.121  52.598  1.00  0.00    +0.153 C 
ATOM     21  C   UNL     1      19.258   0.284  51.237  1.00  0.00    +0.113 C 
ATOM     22  C   UNL     1      18.381  -1.011  53.100  1.00  0.00    +0.113 C 
ATOM     23  N   UNL     1      19.187   0.668  50.144  1.00  0.00    -0.192 NA
ATOM     24  N   UNL     1      17.569  -1.712  53.542  1.00  0.00    -0.192 NA
BRANCH  19  25
ATOM     25  N   UNL     1      20.525   0.014  54.743  1.00  0.00    -0.396 N 
ATOM     26  H   UNL     1      20.163   0.703  55.406  1.00  0.00    +0.156 HD
ATOM     27  H   UNL     1      20.303  -0.942  55.023  1.00  0.00    +0.156 HD
ENDBRANCH  19  25
ENDBRANCH   2  19
TORSDOF 5
ENDMDL
MODEL 4
REMARK VINA RESULT:    -7.320      3.586      5.391
REMARK INTER + INTRA:          -8.720
REMARK INTER:                  -8.629
REMARK INTRA:                  -0.091
REMARK UNBOUND:                 0.311
REMARK SMILES N#CC(=Cc1cccc(Br)c1)C(N)=C(C#N)C(N)=C(C#N)C#N
REMARK SMILES IDX 12 1 14 2 15 3 16 4 3 5 1 6 2 7 4 8 5 9 6 10 11 11 7 12 9 13
REMARK SMILES IDX 8 14 10 15 13 16 17 19 19 20 20 21 22 22 21 23 23 24 18 25
REMARK H PARENT 13 17 13 18 18 26 18 27
ROOT
ATOM      1  C   UNL     1      25.005   0.484  53.081  1.00  0.00    +0.070 C 
ATOM      2  C   UNL     1      26.222   0.557  52.479  1.00  0.00    +0.101 C 
ATOM      3  C   UNL     1      26.510   1.545  51.476  1.00  0.00    +0.104 C 
ATOM      4  N   UNL     1      26.720   2.332  50.651  1.00  0.00    -0.192 NA
ENDROOT
BRANCH   1   5
ATOM      5  C   UNL     1      23.930   1.418  52.705  1.00  0.00    +0.077 C 
ATOM      6  N   UNL     1      24.239   3.884  53.445  1.00  0.00    -0.192 NA
ATOM      7  C   UNL     1      24.087   2.783  53.112  1.00  0.00    +0.101 C 
ATOM      8  C   UNL     1      22.860   0.978  52.013  1.00  0.00    +0.029 C 
BRANCH   8   9
ATOM      9  C   UNL     1      21.744   1.815  51.560  1.00  0.00    -0.023 A 
ATOM     10  C   UNL     1      20.655   2.076  52.400  1.00  0.00    +0.008 A 
ATOM     11  C   UNL     1      21.781   2.381  50.280  1.00  0.00    +0.023 A 
ATOM     12  C   UNL     1      19.602   2.881  51.959  1.00  0.00    +0.002 A 
ATOM     13  C   UNL     1      20.726   3.184  49.848  1.00  0.00    +0.018 A 
ATOM     14  C   UNL     1      19.636   3.435  50.680  1.00  0.00    +0.016 A 
ATOM     15 Br   UNL     1      20.775   3.940  48.116  1.00  0.00    -0.051 Br
ENDBRANCH   8   9
ENDBRANCH   1   5
BRANCH   1  16
ATOM     16  N   UNL     1      24.662  -0.439  54.061  1.00  0.00    -0.397 N 
ATOM     17  H   UNL     1      25.205  -1.304  54.048  1.00  0.00    +0.156 HD
ATOM     18  H   UNL     1      24.509  -0.086  55.000  1.00  0.00    +0.156 HD
ENDBRANCH   1  16
BRANCH   2  19
ATOM     19  C   UNL     1      27.328  -0.370  52.794  1.00  0.00    +0.081 C 
ATOM     20  C   UNL     1      28.414   0.069  53.486  1.00  0.00    +0.153 C 
ATOM     21  C   UNL     1      28.540   1.427  53.898  1.00  0.00    +0.113 C 
ATOM     22  C   UNL     1      29.486  -0.812  53.797  1.00  0.00    +0.113 C 
ATOM     23  N   UNL     1      28.615   2.549  54.185  1.00  0.00    -0.192 NA
ATOM     24  N   UNL     1      30.361  -1.544  54.011  1.00  0.00    -0.192 NA
BRANCH  19  25
ATOM     25  N   UNL     1      27.145  -1.670  52.337  1.00  0.00    -0.396 N 
ATOM     26  H   UNL     1      27.814  -2.355  52.694  1.00  0.00    +0.156 HD
ATOM     27  H   UNL     1      26.192  -2.034  52.325  1.00  0.00    +0.156 HD
ENDBRANCH  19  25
ENDBRANCH   2  19
TORSDOF 5
ENDMDL
MODEL 5
REMARK VINA RESULT:    -7.317      3.404      4.997
REMARK INTER + INTRA:          -8.717
REMARK INTER:                  -8.671
REMARK INTRA:                  -0.046
REMARK UNBOUND:                 0.311
REMARK SMILES N#CC(=Cc1cccc(Br)c1)C(N)=C(C#N)C(N)=C(C#N)C#N
REMARK SMILES IDX 12 1 14 2 15 3 16 4 3 5 1 6 2 7 4 8 5 9 6 10 11 11 7 12 9 13
REMARK SMILES IDX 8 14 10 15 13 16 17 19 19 20 20 21 22 22 21 23 23 24 18 25
REMARK H PARENT 13 17 13 18 18 26 18 27
ROOT
ATOM      1  C   UNL     1      25.295   0.696  53.460  1.00  0.00    +0.070 C 
ATOM      2  C   UNL     1      26.466   1.043  52.861  1.00  0.00    +0.101 C 
ATOM      3  C   UNL     1      26.493   1.802  51.641  1.00  0.00    +0.104 C 
ATOM      4  N   UNL     1      26.500   2.394  50.644  1.00  0.00    -0.192 NA
ENDROOT
BRANCH   1   5
ATOM      5  C   UNL     1      24.007   1.081  52.859  1.00  0.00    +0.077 C 
ATOM      6  N   UNL     1      23.455   3.615  52.847  1.00  0.00    -0.192 NA
ATOM      7  C   UNL     1      23.689   2.478  52.850  1.00  0.00    +0.101 C 
ATOM      8  C   UNL     1      23.187   0.139  52.351  1.00  0.00    +0.029 C 
BRANCH   8   9
ATOM      9  C   UNL     1      21.897   0.402  51.704  1.00  0.00    -0.023 A 
ATOM     10  C   UNL     1      21.827   1.120  50.504  1.00  0.00    +0.008 A 
ATOM     11  C   UNL     1      20.722  -0.092  52.282  1.00  0.00    +0.023 A 
ATOM     12  C   UNL     1      20.593   1.358  49.895  1.00  0.00    +0.002 A 
ATOM     13  C   UNL     1      19.493   0.149  51.667  1.00  0.00    +0.018 A 
ATOM     14  C   UNL     1      19.423   0.873  50.478  1.00  0.00    +0.016 A 
ATOM     15 Br   UNL     1      17.907  -0.514  52.454  1.00  0.00    -0.051 Br
ENDBRANCH   8   9
ENDBRANCH   1   5
BRANCH   1  16
ATOM     16  N   UNL     1      25.196  -0.029  54.641  1.00  0.00    -0.397 N 
ATOM     17  H   UNL     1      26.077  -0.412  54.988  1.00  0.00    +0.156 HD
ATOM     18  H   UNL     1      24.621   0.363  55.380  1.00  0.00    +0.156 HD
ENDBRANCH   1  16
BRANCH   2  19
ATOM     19  C   UNL     1      27.786   0.661  53.402  1.00  0.00    +0.081 C 
ATOM     20  C   UNL     1      28.258  -0.602  53.228  1.00  0.00    +0.153 C 
ATOM     21  C   UNL     1      27.497  -1.601  52.555  1.00  0.00    +0.113 C 
ATOM     22  C   UNL     1      29.528  -0.984  53.744  1.00  0.00    +0.113 C 
ATOM     23  N   UNL     1      26.828  -2.390  52.029  1.00  0.00    -0.192 NA
ATOM     24  N   UNL     1      30.553  -1.278  54.202  1.00  0.00    -0.192 NA
BRANCH  19  25
ATOM     25  N   UNL     1      28.457   1.680  54.068  1.00  0.00    -0.396 N 
ATOM     26  H   UNL     1      27.877   2.476  54.342  1.00  0.00    +0.156 HD
ATOM     27  H   UNL     1      29.111   1.410  54.804  1.00  0.00    +0.156 HD
ENDBRANCH  19  25
ENDBRANCH   2  19
TORSDOF 5
ENDMDL
MODEL 6
REMARK VINA RESULT:    -7.296      3.380      4.993
REMARK INTER + INTRA:          -8.691
REMARK INTER:                  -8.587
REMARK INTRA:                  -0.104
REMARK UNBOUND:                 0.311
REMARK SMILES N#CC(=Cc1cccc(Br)c1)C(N)=C(C#N)C(N)=C(C#N)C#N
REMARK SMILES IDX 12 1 14 2 15 3 16 4 3 5 1 6 2 7 4 8 5 9 6 10 11 11 7 12 9 13
REMARK SMILES IDX 8 14 10 15 13 16 17 19 19 20 20 21 22 22 21 23 23 24 18 25
REMARK H PARENT 13 17 13 18 18 26 18 27
ROOT
ATOM      1  C   UNL     1      25.061   1.429  52.397  1.00  0.00    +0.070 C 
ATOM      2  C   UNL     1      25.461   0.555  53.360  1.00  0.00    +0.101 C 
ATOM      3  C   UNL     1      24.520  -0.251  54.085  1.00  0.00    +0.104 C 
ATOM      4  N   UNL     1      23.747  -0.879  54.681  1.00  0.00    -0.192 NA
ENDROOT
BRANCH   1   5
ATOM      5  C   UNL     1      23.631   1.585  52.081  1.00  0.00    +0.077 C 
ATOM      6  N   UNL     1      22.608   3.930  52.506  1.00  0.00    -0.192 NA
ATOM      7  C   UNL     1      23.053   2.875  52.315  1.00  0.00    +0.101 C 
ATOM      8  C   UNL     1      22.926   0.543  51.597  1.00  0.00    +0.029 C 
BRANCH   8   9
ATOM      9  C   UNL     1      21.508   0.585  51.221  1.00  0.00    -0.023 A 
ATOM     10  C   UNL     1      21.095   1.227  50.048  1.00  0.00    +0.008 A 
ATOM     11  C   UNL     1      20.560  -0.047  52.033  1.00  0.00    +0.023 A 
ATOM     12  C   UNL     1      19.743   1.253  49.697  1.00  0.00    +0.002 A 
ATOM     13  C   UNL     1      19.212  -0.017  51.675  1.00  0.00    +0.018 A 
ATOM     14  C   UNL     1      18.798   0.631  50.513  1.00  0.00    +0.016 A 
ATOM     15 Br   UNL     1      17.932  -0.866  52.779  1.00  0.00    -0.051 Br
ENDBRANCH   8   9
ENDBRANCH   1   5
BRANCH   1  16
ATOM     16  N   UNL     1      25.916   2.233  51.653  1.00  0.00    -0.397 N 
ATOM     17  H   UNL     1      26.712   2.610  52.170  1.00  0.00    +0.156 HD
ATOM     18  H   UNL     1      26.168   1.909  50.725  1.00  0.00    +0.156 HD
ENDBRANCH   1  16
BRANCH   2  19
ATOM     19  C   UNL     1      26.878   0.377  53.739  1.00  0.00    +0.081 C 
ATOM     20  C   UNL     1      27.591  -0.672  53.248  1.00  0.00    +0.153 C 
ATOM     21  C   UNL     1      27.001  -1.643  52.389  1.00  0.00    +0.113 C 
ATOM     22  C   UNL     1      28.956  -0.856  53.605  1.00  0.00    +0.113 C 
ATOM     23  N   UNL     1      26.470  -2.427  51.719  1.00  0.00    -0.192 NA
ATOM     24  N   UNL     1      30.059  -1.001  53.936  1.00  0.00    -0.192 NA
BRANCH  19  25
ATOM     25  N   UNL     1      27.375   1.348  54.600  1.00  0.00    -0.396 N 
ATOM     26  H   UNL     1      28.202   1.846  54.263  1.00  0.00    +0.156 HD
ATOM     27  H   UNL     1      26.702   1.977  55.039  1.00  0.00    +0.156 HD
ENDBRANCH  19  25
ENDBRANCH   2  19
TORSDOF 5
ENDMDL
MODEL 7
REMARK VINA RESULT:    -7.216      1.804      2.725
REMARK INTER + INTRA:          -8.591
REMARK INTER:                  -8.436
REMARK INTRA:                  -0.155
REMARK UNBOUND:                 0.311
REMARK SMILES N#CC(=Cc1cccc(Br)c1)C(N)=C(C#N)C(N)=C(C#N)C#N
REMARK SMILES IDX 12 1 14 2 15 3 16 4 3 5 1 6 2 7 4 8 5 9 6 10 11 11 7 12 9 13
REMARK SMILES IDX 8 14 10 15 13 16 17 19 19 20 20 21 22 22 21 23 23 24 18 25
REMARK H PARENT 13 17 13 18 18 26 18 27
ROOT
ATOM      1  C   UNL     1      23.859   3.699  51.462  1.00  0.00    +0.070 C 
ATOM      2  C   UNL     1      23.178   4.857  51.249  1.00  0.00    +0.101 C 
ATOM      3  C   UNL     1      21.743   4.905  51.285  1.00  0.00    +0.104 C 
ATOM      4  N   UNL     1      20.583   4.925  51.292  1.00  0.00    -0.192 NA
ENDROOT
BRANCH   1   5
ATOM      5  C   UNL     1      23.134   2.444  51.721  1.00  0.00    +0.077 C 
ATOM      6  N   UNL     1      22.151   1.234  49.649  1.00  0.00    -0.192 NA
ATOM      7  C   UNL     1      22.582   1.768  50.585  1.00  0.00    +0.101 C 
ATOM      8  C   UNL     1      23.009   1.981  52.981  1.00  0.00    +0.029 C 
BRANCH   8   9
ATOM      9  C   UNL     1      22.336   0.734  53.360  1.00  0.00    -0.023 A 
ATOM     10  C   UNL     1      23.036  -0.296  53.998  1.00  0.00    +0.008 A 
ATOM     11  C   UNL     1      20.968   0.582  53.101  1.00  0.00    +0.023 A 
ATOM     12  C   UNL     1      22.382  -1.476  54.360  1.00  0.00    +0.002 A 
ATOM     13  C   UNL     1      20.322  -0.599  53.467  1.00  0.00    +0.018 A 
ATOM     14  C   UNL     1      21.022  -1.629  54.093  1.00  0.00    +0.016 A 
ATOM     15 Br   UNL     1      18.477  -0.804  53.109  1.00  0.00    -0.051 Br
ENDBRANCH   8   9
ENDBRANCH   1   5
BRANCH   1  16
ATOM     16  N   UNL     1      25.244   3.583  51.449  1.00  0.00    -0.397 N 
ATOM     17  H   UNL     1      25.646   3.126  52.269  1.00  0.00    +0.156 HD
ATOM     18  H   UNL     1      25.678   3.285  50.581  1.00  0.00    +0.156 HD
ENDBRANCH   1  16
BRANCH   2  19
ATOM     19  C   UNL     1      23.851   6.139  50.957  1.00  0.00    +0.081 C 
ATOM     20  C   UNL     1      23.928   6.596  49.678  1.00  0.00    +0.153 C 
ATOM     21  C   UNL     1      23.401   5.852  48.583  1.00  0.00    +0.113 C 
ATOM     22  C   UNL     1      24.574   7.829  49.382  1.00  0.00    +0.113 C 
ATOM     23  N   UNL     1      22.987   5.196  47.720  1.00  0.00    -0.192 NA
ATOM     24  N   UNL     1      25.132   8.822  49.164  1.00  0.00    -0.192 NA
BRANCH  19  25
ATOM     25  N   UNL     1      24.362   6.794  52.071  1.00  0.00    -0.396 N 
ATOM     26  H   UNL     1      23.695   6.945  52.831  1.00  0.00    +0.156 HD
ATOM     27  H   UNL     1      25.275   6.493  52.416  1.00  0.00    +0.156 HD
ENDBRANCH  19  25
ENDBRANCH   2  19
TORSDOF 5
ENDMDL
MODEL 8
REMARK VINA RESULT:    -7.078      3.670      7.368
REMARK INTER + INTRA:          -8.422
REMARK INTER:                  -8.069
REMARK INTRA:                  -0.353
REMARK UNBOUND:                 0.311
REMARK SMILES N#CC(=Cc1cccc(Br)c1)C(N)=C(C#N)C(N)=C(C#N)C#N
REMARK SMILES IDX 12 1 14 2 15 3 16 4 3 5 1 6 2 7 4 8 5 9 6 10 11 11 7 12 9 13
REMARK SMILES IDX 8 14 10 15 13 16 17 19 19 20 20 21 22 22 21 23 23 24 18 25
REMARK H PARENT 13 17 13 18 18 26 18 27
ROOT
ATOM      1  C   UNL     1      24.134   2.929  52.307  1.00  0.00    +0.070 C 
ATOM      2  C   UNL     1      23.263   1.946  51.955  1.00  0.00    +0.101 C 
ATOM      3  C   UNL     1      22.864   1.745  50.590  1.00  0.00    +0.104 C 
ATOM      4  N   UNL     1      22.531   1.609  49.487  1.00  0.00    -0.192 NA
ENDROOT
BRANCH   1   5
ATOM      5  C   UNL     1      24.687   3.835  51.286  1.00  0.00    +0.077 C 
ATOM      6  N   UNL     1      26.831   3.028  50.071  1.00  0.00    -0.192 NA
ATOM      7  C   UNL     1      25.874   3.402  50.611  1.00  0.00    +0.101 C 
ATOM      8  C   UNL     1      24.083   5.011  51.024  1.00  0.00    +0.029 C 
BRANCH   8   9
ATOM      9  C   UNL     1      24.523   5.981  50.014  1.00  0.00    -0.023 A 
ATOM     10  C   UNL     1      24.003   5.950  48.714  1.00  0.00    +0.008 A 
ATOM     11  C   UNL     1      25.457   6.964  50.361  1.00  0.00    +0.023 A 
ATOM     12  C   UNL     1      24.425   6.883  47.764  1.00  0.00    +0.002 A 
ATOM     13  C   UNL     1      25.872   7.892  49.406  1.00  0.00    +0.018 A 
ATOM     14  C   UNL     1      25.362   7.855  48.109  1.00  0.00    +0.016 A 
ATOM     15 Br   UNL     1      27.139   9.214  49.877  1.00  0.00    -0.051 Br
ENDBRANCH   8   9
ENDBRANCH   1   5
BRANCH   1  16
ATOM     16  N   UNL     1      24.568   3.175  53.604  1.00  0.00    -0.397 N 
ATOM     17  H   UNL     1      24.854   4.137  53.788  1.00  0.00    +0.156 HD
ATOM     18  H   UNL     1      24.021   2.776  54.360  1.00  0.00    +0.156 HD
ENDBRANCH   1  16
BRANCH   2  19
ATOM     19  C   UNL     1      22.655   1.027  52.938  1.00  0.00    +0.081 C 
ATOM     20  C   UNL     1      23.386   0.009  53.467  1.00  0.00    +0.153 C 
ATOM     21  C   UNL     1      24.735  -0.227  53.076  1.00  0.00    +0.113 C 
ATOM     22  C   UNL     1      22.813  -0.884  54.415  1.00  0.00    +0.113 C 
ATOM     23  N   UNL     1      25.820  -0.400  52.703  1.00  0.00    -0.192 NA
ATOM     24  N   UNL     1      22.313  -1.617  55.163  1.00  0.00    -0.192 NA
BRANCH  19  25
ATOM     25  N   UNL     1      21.329   1.304  53.250  1.00  0.00    -0.396 N 
ATOM     26  H   UNL     1      20.918   0.707  53.970  1.00  0.00    +0.156 HD
ATOM     27  H   UNL     1      21.068   2.284  53.368  1.00  0.00    +0.156 HD
ENDBRANCH  19  25
ENDBRANCH   2  19
TORSDOF 5
ENDMDL
MODEL 9
REMARK VINA RESULT:    -6.928      3.320      7.208
REMARK INTER + INTRA:          -8.236
REMARK INTER:                  -7.973
REMARK INTRA:                  -0.263
REMARK UNBOUND:                 0.311
REMARK SMILES N#CC(=Cc1cccc(Br)c1)C(N)=C(C#N)C(N)=C(C#N)C#N
REMARK SMILES IDX 12 1 14 2 15 3 16 4 3 5 1 6 2 7 4 8 5 9 6 10 11 11 7 12 9 13
REMARK SMILES IDX 8 14 10 15 13 16 17 19 19 20 20 21 22 22 21 23 23 24 18 25
REMARK H PARENT 13 17 13 18 18 26 18 27
ROOT
ATOM      1  C   UNL     1      24.283   2.864  52.318  1.00  0.00    +0.070 C 
ATOM      2  C   UNL     1      23.527   1.785  51.979  1.00  0.00    +0.101 C 
ATOM      3  C   UNL     1      22.909   1.673  50.687  1.00  0.00    +0.104 C 
ATOM      4  N   UNL     1      22.395   1.607  49.649  1.00  0.00    -0.192 NA
ENDROOT
BRANCH   1   5
ATOM      5  C   UNL     1      24.476   3.968  51.362  1.00  0.00    +0.077 C 
ATOM      6  N   UNL     1      26.496   3.753  49.750  1.00  0.00    -0.192 NA
ATOM      7  C   UNL     1      25.591   3.863  50.469  1.00  0.00    +0.101 C 
ATOM      8  C   UNL     1      23.628   5.016  51.356  1.00  0.00    +0.029 C 
BRANCH   8   9
ATOM      9  C   UNL     1      23.702   6.157  50.437  1.00  0.00    -0.023 A 
ATOM     10  C   UNL     1      24.274   7.370  50.841  1.00  0.00    +0.008 A 
ATOM     11  C   UNL     1      23.216   6.025  49.131  1.00  0.00    +0.023 A 
ATOM     12  C   UNL     1      24.345   8.446  49.955  1.00  0.00    +0.002 A 
ATOM     13  C   UNL     1      23.291   7.105  48.252  1.00  0.00    +0.018 A 
ATOM     14  C   UNL     1      23.851   8.315  48.657  1.00  0.00    +0.016 A 
ATOM     15 Br   UNL     1      22.627   6.924  46.491  1.00  0.00    -0.051 Br
ENDBRANCH   8   9
ENDBRANCH   1   5
BRANCH   1  16
ATOM     16  N   UNL     1      24.915   3.033  53.543  1.00  0.00    -0.397 N 
ATOM     17  H   UNL     1      24.972   2.192  54.119  1.00  0.00    +0.156 HD
ATOM     18  H   UNL     1      25.773   3.575  53.553  1.00  0.00    +0.156 HD
ENDBRANCH   1  16
BRANCH   2  19
ATOM     19  C   UNL     1      23.276   0.662  52.904  1.00  0.00    +0.081 C 
ATOM     20  C   UNL     1      22.045   0.495  53.459  1.00  0.00    +0.153 C 
ATOM     21  C   UNL     1      20.977   1.400  53.200  1.00  0.00    +0.113 C 
ATOM     22  C   UNL     1      21.789  -0.583  54.353  1.00  0.00    +0.113 C 
ATOM     23  N   UNL     1      20.146   2.181  52.986  1.00  0.00    -0.192 NA
ATOM     24  N   UNL     1      21.615  -1.452  55.102  1.00  0.00    -0.192 NA
BRANCH  19  25
ATOM     25  N   UNL     1      24.372  -0.162  53.129  1.00  0.00    -0.396 N 
ATOM     26  H   UNL     1      25.214   0.081  52.602  1.00  0.00    +0.156 HD
ATOM     27  H   UNL     1      24.583  -0.412  54.095  1.00  0.00    +0.156 HD
ENDBRANCH  19  25
ENDBRANCH   2  19
TORSDOF 5
ENDMDL
