MODEL 1
REMARK VINA RESULT:    -9.553      0.000      0.000
REMARK INTER + INTRA:         -11.103
REMARK INTER:                 -10.670
REMARK INTRA:                  -0.433
REMARK UNBOUND:                -0.433
REMARK SMILES Cc1cccc(C=C2C(=O)N(C)c3ncnc(-c4cccc(Cl)c4)c32)c1
REMARK SMILES IDX 7 1 8 2 9 3 10 4 11 5 12 6 13 7 14 8 15 9 16 10 17 11 25 12
REMARK SMILES IDX 6 13 2 14 3 15 26 16 4 17 5 18 1 19 18 20 19 21 24 22 20 23
REMARK SMILES IDX 22 24 21 25 23 26
REMARK H PARENT
ROOT
ATOM      1  C   UNL     1      25.659   1.234  52.796  1.00  0.00    +0.022 C 
ATOM      2  C   UNL     1      24.497   0.716  53.223  1.00  0.00    +0.054 C 
ATOM      3  C   UNL     1      24.324  -0.465  54.149  1.00  0.00    +0.260 C 
ATOM      4  O   UNL     1      25.189  -1.169  54.631  1.00  0.00    -0.269 OA
ATOM      5  N   UNL     1      22.954  -0.571  54.330  1.00  0.00    -0.295 N 
ATOM      6  C   UNL     1      22.291  -1.554  55.140  1.00  0.00    +0.155 C 
ATOM      7  C   UNL     1      22.260   0.398  53.599  1.00  0.00    +0.147 A 
ATOM      8  N   UNL     1      20.928   0.514  53.591  1.00  0.00    -0.218 NA
ATOM      9  C   UNL     1      20.477   1.507  52.816  1.00  0.00    +0.224 A 
ATOM     10  N   UNL     1      21.231   2.342  52.077  1.00  0.00    -0.236 NA
ATOM     11  C   UNL     1      22.577   2.169  52.115  1.00  0.00    +0.084 A 
ATOM     12  C   UNL     1      23.148   1.194  52.895  1.00  0.00    +0.057 A 
ENDROOT
BRANCH   1  13
ATOM     13  C   UNL     1      27.008   0.766  53.138  1.00  0.00    -0.025 A 
ATOM     14  C   UNL     1      28.678  -1.000  53.277  1.00  0.00    -0.051 A 
ATOM     15  C   UNL     1      29.554  -0.107  53.907  1.00  0.00    +0.003 A 
ATOM     16  C   UNL     1      27.398  -0.558  52.913  1.00  0.00    +0.011 A 
ATOM     17  C   UNL     1      29.166   1.212  54.144  1.00  0.00    +0.001 A 
ATOM     18  C   UNL     1      27.897   1.647  53.762  1.00  0.00    +0.008 A 
ATOM     19  C   UNL     1      29.082  -2.425  53.043  1.00  0.00    +0.044 C 
ENDBRANCH   1  13
BRANCH  11  20
ATOM     20  C   UNL     1      23.321   3.089  51.256  1.00  0.00    +0.002 A 
ATOM     21  C   UNL     1      23.884   2.650  50.046  1.00  0.00    +0.010 A 
ATOM     22  C   UNL     1      23.471   4.438  51.617  1.00  0.00    +0.030 A 
ATOM     23  C   UNL     1      24.597   3.529  49.227  1.00  0.00    +0.002 A 
ATOM     24  C   UNL     1      24.183   5.311  50.795  1.00  0.00    +0.041 A 
ATOM     25  C   UNL     1      24.750   4.862  49.604  1.00  0.00    +0.020 A 
ATOM     26 Cl   UNL     1      24.364   6.959  51.258  1.00  0.00    -0.084 Cl
ENDBRANCH  11  20
TORSDOF 2
ENDMDL
MODEL 2
REMARK VINA RESULT:    -9.211      2.639      5.856
REMARK INTER + INTRA:         -10.721
REMARK INTER:                 -10.247
REMARK INTRA:                  -0.473
REMARK UNBOUND:                -0.433
REMARK SMILES Cc1cccc(C=C2C(=O)N(C)c3ncnc(-c4cccc(Cl)c4)c32)c1
REMARK SMILES IDX 7 1 8 2 9 3 10 4 11 5 12 6 13 7 14 8 15 9 16 10 17 11 25 12
REMARK SMILES IDX 6 13 2 14 3 15 26 16 4 17 5 18 1 19 18 20 19 21 24 22 20 23
REMARK SMILES IDX 22 24 21 25 23 26
REMARK H PARENT
ROOT
ATOM      1  C   UNL     1      24.071   1.760  51.826  1.00  0.00    +0.022 C 
ATOM      2  C   UNL     1      23.252   1.031  52.599  1.00  0.00    +0.054 C 
ATOM      3  C   UNL     1      21.744   0.975  52.511  1.00  0.00    +0.260 C 
ATOM      4  O   UNL     1      21.016   1.598  51.766  1.00  0.00    -0.269 OA
ATOM      5  N   UNL     1      21.372   0.049  53.473  1.00  0.00    -0.295 N 
ATOM      6  C   UNL     1      20.025  -0.352  53.772  1.00  0.00    +0.155 C 
ATOM      7  C   UNL     1      22.480  -0.454  54.163  1.00  0.00    +0.147 A 
ATOM      8  N   UNL     1      22.398  -1.357  55.147  1.00  0.00    -0.218 NA
ATOM      9  C   UNL     1      23.583  -1.691  55.671  1.00  0.00    +0.224 A 
ATOM     10  N   UNL     1      24.781  -1.200  55.304  1.00  0.00    -0.236 NA
ATOM     11  C   UNL     1      24.800  -0.277  54.308  1.00  0.00    +0.084 A 
ATOM     12  C   UNL     1      23.644   0.122  53.684  1.00  0.00    +0.057 A 
ENDROOT
BRANCH   1  13
ATOM     13  C   UNL     1      23.680   2.655  50.731  1.00  0.00    -0.025 A 
ATOM     14  C   UNL     1      22.845   3.019  48.473  1.00  0.00    -0.051 A 
ATOM     15  C   UNL     1      23.048   4.395  48.631  1.00  0.00    +0.003 A 
ATOM     16  C   UNL     1      23.182   2.154  49.523  1.00  0.00    +0.011 A 
ATOM     17  C   UNL     1      23.554   4.900  49.829  1.00  0.00    +0.001 A 
ATOM     18  C   UNL     1      23.871   4.033  50.876  1.00  0.00    +0.008 A 
ATOM     19  C   UNL     1      22.325   2.471  47.177  1.00  0.00    +0.044 C 
ENDBRANCH   1  13
BRANCH  11  20
ATOM     20  C   UNL     1      26.134   0.235  53.995  1.00  0.00    +0.002 A 
ATOM     21  C   UNL     1      26.380   1.618  53.940  1.00  0.00    +0.010 A 
ATOM     22  C   UNL     1      27.200  -0.648  53.761  1.00  0.00    +0.030 A 
ATOM     23  C   UNL     1      27.653   2.107  53.638  1.00  0.00    +0.002 A 
ATOM     24  C   UNL     1      28.470  -0.153  53.462  1.00  0.00    +0.041 A 
ATOM     25  C   UNL     1      28.700   1.219  53.395  1.00  0.00    +0.020 A 
ATOM     26 Cl   UNL     1      29.763  -1.251  53.169  1.00  0.00    -0.084 Cl
ENDBRANCH  11  20
TORSDOF 2
ENDMDL
MODEL 3
REMARK VINA RESULT:    -9.019      2.958      6.341
REMARK INTER + INTRA:         -10.507
REMARK INTER:                  -9.781
REMARK INTRA:                  -0.726
REMARK UNBOUND:                -0.433
REMARK SMILES Cc1cccc(C=C2C(=O)N(C)c3ncnc(-c4cccc(Cl)c4)c32)c1
REMARK SMILES IDX 7 1 8 2 9 3 10 4 11 5 12 6 13 7 14 8 15 9 16 10 17 11 25 12
REMARK SMILES IDX 6 13 2 14 3 15 26 16 4 17 5 18 1 19 18 20 19 21 24 22 20 23
REMARK SMILES IDX 22 24 21 25 23 26
REMARK H PARENT
ROOT
ATOM      1  C   UNL     1      22.766   1.735  50.654  1.00  0.00    +0.022 C 
ATOM      2  C   UNL     1      21.792   1.113  51.336  1.00  0.00    +0.054 C 
ATOM      3  C   UNL     1      20.316   1.124  51.009  1.00  0.00    +0.260 C 
ATOM      4  O   UNL     1      19.755   1.721  50.112  1.00  0.00    -0.269 OA
ATOM      5  N   UNL     1      19.740   0.300  51.962  1.00  0.00    -0.295 N 
ATOM      6  C   UNL     1      18.341  -0.008  52.067  1.00  0.00    +0.155 C 
ATOM      7  C   UNL     1      20.691  -0.200  52.857  1.00  0.00    +0.147 A 
ATOM      8  N   UNL     1      20.401  -1.015  53.877  1.00  0.00    -0.218 NA
ATOM      9  C   UNL     1      21.465  -1.363  54.608  1.00  0.00    +0.224 A 
ATOM     10  N   UNL     1      22.734  -0.964  54.406  1.00  0.00    -0.236 NA
ATOM     11  C   UNL     1      22.967  -0.128  53.362  1.00  0.00    +0.084 A 
ATOM     12  C   UNL     1      21.950   0.277  52.532  1.00  0.00    +0.057 A 
ENDROOT
BRANCH   1  13
ATOM     13  C   UNL     1      22.608   2.556  49.448  1.00  0.00    -0.025 A 
ATOM     14  C   UNL     1      22.368   4.722  48.363  1.00  0.00    -0.051 A 
ATOM     15  C   UNL     1      22.197   4.076  47.134  1.00  0.00    +0.003 A 
ATOM     16  C   UNL     1      22.555   3.952  49.520  1.00  0.00    +0.011 A 
ATOM     17  C   UNL     1      22.238   2.683  47.058  1.00  0.00    +0.001 A 
ATOM     18  C   UNL     1      22.442   1.925  48.211  1.00  0.00    +0.008 A 
ATOM     19  C   UNL     1      22.299   6.218  48.453  1.00  0.00    +0.044 C 
ENDBRANCH   1  13
BRANCH  11  20
ATOM     20  C   UNL     1      24.362   0.291  53.232  1.00  0.00    +0.002 A 
ATOM     21  C   UNL     1      24.707   1.653  53.214  1.00  0.00    +0.010 A 
ATOM     22  C   UNL     1      25.387  -0.664  53.143  1.00  0.00    +0.030 A 
ATOM     23  C   UNL     1      26.040   2.052  53.088  1.00  0.00    +0.002 A 
ATOM     24  C   UNL     1      26.717  -0.260  53.019  1.00  0.00    +0.041 A 
ATOM     25  C   UNL     1      27.047   1.093  52.987  1.00  0.00    +0.020 A 
ATOM     26 Cl   UNL     1      27.959  -1.444  52.901  1.00  0.00    -0.084 Cl
ENDBRANCH  11  20
TORSDOF 2
ENDMDL
MODEL 4
REMARK VINA RESULT:    -8.890      2.496      5.155
REMARK INTER + INTRA:         -10.363
REMARK INTER:                  -9.764
REMARK INTRA:                  -0.598
REMARK UNBOUND:                -0.433
REMARK SMILES Cc1cccc(C=C2C(=O)N(C)c3ncnc(-c4cccc(Cl)c4)c32)c1
REMARK SMILES IDX 7 1 8 2 9 3 10 4 11 5 12 6 13 7 14 8 15 9 16 10 17 11 25 12
REMARK SMILES IDX 6 13 2 14 3 15 26 16 4 17 5 18 1 19 18 20 19 21 24 22 20 23
REMARK SMILES IDX 22 24 21 25 23 26
REMARK H PARENT
ROOT
ATOM      1  C   UNL     1      24.583   2.903  50.869  1.00  0.00    +0.022 C 
ATOM      2  C   UNL     1      24.972   2.022  51.803  1.00  0.00    +0.054 C 
ATOM      3  C   UNL     1      26.363   1.874  52.377  1.00  0.00    +0.260 C 
ATOM      4  O   UNL     1      27.365   2.487  52.071  1.00  0.00    -0.269 OA
ATOM      5  N   UNL     1      26.242   0.880  53.335  1.00  0.00    -0.295 N 
ATOM      6  C   UNL     1      27.305   0.380  54.161  1.00  0.00    +0.155 C 
ATOM      7  C   UNL     1      24.937   0.379  53.399  1.00  0.00    +0.147 A 
ATOM      8  N   UNL     1      24.551  -0.591  54.234  1.00  0.00    -0.218 NA
ATOM      9  C   UNL     1      23.259  -0.919  54.120  1.00  0.00    +0.224 A 
ATOM     10  N   UNL     1      22.375  -0.376  53.262  1.00  0.00    -0.236 NA
ATOM     11  C   UNL     1      22.827   0.596  52.430  1.00  0.00    +0.084 A 
ATOM     12  C   UNL     1      24.131   1.025  52.478  1.00  0.00    +0.057 A 
ENDROOT
BRANCH   1  13
ATOM     13  C   UNL     1      25.421   3.910  50.207  1.00  0.00    -0.025 A 
ATOM     14  C   UNL     1      25.901   6.220  49.606  1.00  0.00    -0.051 A 
ATOM     15  C   UNL     1      26.987   5.784  48.839  1.00  0.00    +0.003 A 
ATOM     16  C   UNL     1      25.111   5.273  50.273  1.00  0.00    +0.011 A 
ATOM     17  C   UNL     1      27.295   4.425  48.761  1.00  0.00    +0.001 A 
ATOM     18  C   UNL     1      26.513   3.490  49.441  1.00  0.00    +0.008 A 
ATOM     19  C   UNL     1      25.552   7.677  49.672  1.00  0.00    +0.044 C 
ENDBRANCH   1  13
BRANCH  11  20
ATOM     20  C   UNL     1      21.817   1.106  51.504  1.00  0.00    +0.002 A 
ATOM     21  C   UNL     1      21.751   0.639  50.181  1.00  0.00    +0.010 A 
ATOM     22  C   UNL     1      20.879   2.062  51.927  1.00  0.00    +0.030 A 
ATOM     23  C   UNL     1      20.787   1.128  49.296  1.00  0.00    +0.002 A 
ATOM     24  C   UNL     1      19.919   2.546  51.040  1.00  0.00    +0.041 A 
ATOM     25  C   UNL     1      19.870   2.087  49.726  1.00  0.00    +0.020 A 
ATOM     26 Cl   UNL     1      18.783   3.724  51.573  1.00  0.00    -0.084 Cl
ENDBRANCH  11  20
TORSDOF 2
ENDMDL
MODEL 5
REMARK VINA RESULT:    -8.887      2.755      4.760
REMARK INTER + INTRA:         -10.359
REMARK INTER:                 -10.971
REMARK INTRA:                   0.612
REMARK UNBOUND:                -0.433
REMARK SMILES Cc1cccc(C=C2C(=O)N(C)c3ncnc(-c4cccc(Cl)c4)c32)c1
REMARK SMILES IDX 7 1 8 2 9 3 10 4 11 5 12 6 13 7 14 8 15 9 16 10 17 11 25 12
REMARK SMILES IDX 6 13 2 14 3 15 26 16 4 17 5 18 1 19 18 20 19 21 24 22 20 23
REMARK SMILES IDX 22 24 21 25 23 26
REMARK H PARENT
ROOT
ATOM      1  C   UNL     1      25.374   0.639  52.756  1.00  0.00    +0.022 C 
ATOM      2  C   UNL     1      25.053   1.594  51.870  1.00  0.00    +0.054 C 
ATOM      3  C   UNL     1      26.012   2.519  51.155  1.00  0.00    +0.260 C 
ATOM      4  O   UNL     1      27.218   2.588  51.285  1.00  0.00    -0.269 OA
ATOM      5  N   UNL     1      25.209   3.274  50.315  1.00  0.00    -0.295 N 
ATOM      6  C   UNL     1      25.667   4.302  49.422  1.00  0.00    +0.155 C 
ATOM      7  C   UNL     1      23.859   2.937  50.449  1.00  0.00    +0.147 A 
ATOM      8  N   UNL     1      22.873   3.520  49.759  1.00  0.00    -0.218 NA
ATOM      9  C   UNL     1      21.657   3.046  50.051  1.00  0.00    +0.224 A 
ATOM     10  N   UNL     1      21.373   2.085  50.950  1.00  0.00    -0.236 NA
ATOM     11  C   UNL     1      22.414   1.539  51.630  1.00  0.00    +0.084 A 
ATOM     12  C   UNL     1      23.707   1.935  51.393  1.00  0.00    +0.057 A 
ENDROOT
BRANCH   1  13
ATOM     13  C   UNL     1      26.721   0.288  53.219  1.00  0.00    -0.025 A 
ATOM     14  C   UNL     1      28.576  -1.282  53.383  1.00  0.00    -0.051 A 
ATOM     15  C   UNL     1      29.250  -0.382  54.216  1.00  0.00    +0.003 A 
ATOM     16  C   UNL     1      27.302  -0.946  52.904  1.00  0.00    +0.011 A 
ATOM     17  C   UNL     1      28.672   0.845  54.543  1.00  0.00    +0.001 A 
ATOM     18  C   UNL     1      27.411   1.179  54.047  1.00  0.00    +0.008 A 
ATOM     19  C   UNL     1      29.183  -2.612  53.050  1.00  0.00    +0.044 C 
ENDBRANCH   1  13
BRANCH  11  20
ATOM     20  C   UNL     1      22.020   0.531  52.615  1.00  0.00    +0.002 A 
ATOM     21  C   UNL     1      22.936   0.063  53.572  1.00  0.00    +0.010 A 
ATOM     22  C   UNL     1      20.710   0.026  52.633  1.00  0.00    +0.030 A 
ATOM     23  C   UNL     1      22.560  -0.901  54.511  1.00  0.00    +0.002 A 
ATOM     24  C   UNL     1      20.340  -0.935  53.574  1.00  0.00    +0.041 A 
ATOM     25  C   UNL     1      21.260  -1.403  54.510  1.00  0.00    +0.020 A 
ATOM     26 Cl   UNL     1      18.733  -1.550  53.576  1.00  0.00    -0.084 Cl
ENDBRANCH  11  20
TORSDOF 2
ENDMDL
MODEL 6
REMARK VINA RESULT:    -8.805      2.027      2.535
REMARK INTER + INTRA:         -10.268
REMARK INTER:                  -9.340
REMARK INTRA:                  -0.928
REMARK UNBOUND:                -0.433
REMARK SMILES Cc1cccc(C=C2C(=O)N(C)c3ncnc(-c4cccc(Cl)c4)c32)c1
REMARK SMILES IDX 7 1 8 2 9 3 10 4 11 5 12 6 13 7 14 8 15 9 16 10 17 11 25 12
REMARK SMILES IDX 6 13 2 14 3 15 26 16 4 17 5 18 1 19 18 20 19 21 24 22 20 23
REMARK SMILES IDX 22 24 21 25 23 26
REMARK H PARENT
ROOT
ATOM      1  C   UNL     1      23.582   1.258  51.867  1.00  0.00    +0.022 C 
ATOM      2  C   UNL     1      22.484   0.590  52.254  1.00  0.00    +0.054 C 
ATOM      3  C   UNL     1      22.374  -0.359  53.426  1.00  0.00    +0.260 C 
ATOM      4  O   UNL     1      23.253  -0.711  54.187  1.00  0.00    -0.269 OA
ATOM      5  N   UNL     1      21.042  -0.742  53.442  1.00  0.00    -0.295 N 
ATOM      6  C   UNL     1      20.443  -1.646  54.384  1.00  0.00    +0.155 C 
ATOM      7  C   UNL     1      20.323  -0.155  52.396  1.00  0.00    +0.147 A 
ATOM      8  N   UNL     1      19.020  -0.363  52.179  1.00  0.00    -0.218 NA
ATOM      9  C   UNL     1      18.538   0.294  51.118  1.00  0.00    +0.224 A 
ATOM     10  N   UNL     1      19.240   1.095  50.294  1.00  0.00    -0.236 NA
ATOM     11  C   UNL     1      20.561   1.258  50.557  1.00  0.00    +0.084 A 
ATOM     12  C   UNL     1      21.155   0.648  51.635  1.00  0.00    +0.057 A 
ENDROOT
BRANCH   1  13
ATOM     13  C   UNL     1      24.906   1.211  52.498  1.00  0.00    -0.025 A 
ATOM     14  C   UNL     1      26.975   0.040  53.025  1.00  0.00    -0.051 A 
ATOM     15  C   UNL     1      27.379   1.127  53.808  1.00  0.00    +0.003 A 
ATOM     16  C   UNL     1      25.727   0.083  52.388  1.00  0.00    +0.011 A 
ATOM     17  C   UNL     1      26.560   2.251  53.931  1.00  0.00    +0.001 A 
ATOM     18  C   UNL     1      25.327   2.292  53.279  1.00  0.00    +0.008 A 
ATOM     19  C   UNL     1      27.841  -1.179  52.911  1.00  0.00    +0.044 C 
ENDBRANCH   1  13
BRANCH  11  20
ATOM     20  C   UNL     1      21.260   2.111  49.595  1.00  0.00    +0.002 A 
ATOM     21  C   UNL     1      21.751   1.584  48.389  1.00  0.00    +0.010 A 
ATOM     22  C   UNL     1      21.436   3.480  49.853  1.00  0.00    +0.030 A 
ATOM     23  C   UNL     1      22.421   2.398  47.472  1.00  0.00    +0.002 A 
ATOM     24  C   UNL     1      22.104   4.288  48.933  1.00  0.00    +0.041 A 
ATOM     25  C   UNL     1      22.600   3.753  47.746  1.00  0.00    +0.020 A 
ATOM     26 Cl   UNL     1      22.318   5.962  49.269  1.00  0.00    -0.084 Cl
ENDBRANCH  11  20
TORSDOF 2
ENDMDL
MODEL 7
REMARK VINA RESULT:    -8.228      3.536      7.046
REMARK INTER + INTRA:          -9.623
REMARK INTER:                  -9.649
REMARK INTRA:                   0.025
REMARK UNBOUND:                -0.433
REMARK SMILES Cc1cccc(C=C2C(=O)N(C)c3ncnc(-c4cccc(Cl)c4)c32)c1
REMARK SMILES IDX 7 1 8 2 9 3 10 4 11 5 12 6 13 7 14 8 15 9 16 10 17 11 25 12
REMARK SMILES IDX 6 13 2 14 3 15 26 16 4 17 5 18 1 19 18 20 19 21 24 22 20 23
REMARK SMILES IDX 22 24 21 25 23 26
REMARK H PARENT
ROOT
ATOM      1  C   UNL     1      21.655   1.144  51.230  1.00  0.00    +0.022 C 
ATOM      2  C   UNL     1      22.629   0.740  52.060  1.00  0.00    +0.054 C 
ATOM      3  C   UNL     1      24.095   1.096  51.968  1.00  0.00    +0.260 C 
ATOM      4  O   UNL     1      24.649   1.765  51.119  1.00  0.00    -0.269 OA
ATOM      5  N   UNL     1      24.672   0.489  53.072  1.00  0.00    -0.295 N 
ATOM      6  C   UNL     1      26.064   0.540  53.422  1.00  0.00    +0.155 C 
ATOM      7  C   UNL     1      23.731  -0.224  53.821  1.00  0.00    +0.147 A 
ATOM      8  N   UNL     1      24.026  -0.908  54.932  1.00  0.00    -0.218 NA
ATOM      9  C   UNL     1      22.972  -1.520  55.483  1.00  0.00    +0.224 A 
ATOM     10  N   UNL     1      21.710  -1.505  55.016  1.00  0.00    -0.236 NA
ATOM     11  C   UNL     1      21.473  -0.804  53.878  1.00  0.00    +0.084 A 
ATOM     12  C   UNL     1      22.479  -0.119  53.241  1.00  0.00    +0.057 A 
ENDROOT
BRANCH   1  13
ATOM     13  C   UNL     1      21.804   2.016  50.059  1.00  0.00    -0.025 A 
ATOM     14  C   UNL     1      21.804   4.226  49.035  1.00  0.00    -0.051 A 
ATOM     15  C   UNL     1      21.987   3.633  47.781  1.00  0.00    +0.003 A 
ATOM     16  C   UNL     1      21.695   3.407  50.168  1.00  0.00    +0.011 A 
ATOM     17  C   UNL     1      22.085   2.246  47.664  1.00  0.00    +0.001 A 
ATOM     18  C   UNL     1      21.993   1.440  48.799  1.00  0.00    +0.008 A 
ATOM     19  C   UNL     1      21.673   5.714  49.161  1.00  0.00    +0.044 C 
ENDBRANCH   1  13
BRANCH  11  20
ATOM     20  C   UNL     1      20.088  -0.868  53.415  1.00  0.00    +0.002 A 
ATOM     21  C   UNL     1      19.530   0.179  52.662  1.00  0.00    +0.010 A 
ATOM     22  C   UNL     1      19.293  -1.990  53.698  1.00  0.00    +0.030 A 
ATOM     23  C   UNL     1      18.206   0.118  52.221  1.00  0.00    +0.002 A 
ATOM     24  C   UNL     1      17.971  -2.046  53.255  1.00  0.00    +0.041 A 
ATOM     25  C   UNL     1      17.423  -0.996  52.521  1.00  0.00    +0.020 A 
ATOM     26 Cl   UNL     1      17.008  -3.425  53.620  1.00  0.00    -0.084 Cl
ENDBRANCH  11  20
TORSDOF 2
ENDMDL
MODEL 8
REMARK VINA RESULT:    -8.125      2.481      5.390
REMARK INTER + INTRA:          -9.508
REMARK INTER:                  -9.834
REMARK INTRA:                   0.326
REMARK UNBOUND:                -0.433
REMARK SMILES Cc1cccc(C=C2C(=O)N(C)c3ncnc(-c4cccc(Cl)c4)c32)c1
REMARK SMILES IDX 7 1 8 2 9 3 10 4 11 5 12 6 13 7 14 8 15 9 16 10 17 11 25 12
REMARK SMILES IDX 6 13 2 14 3 15 26 16 4 17 5 18 1 19 18 20 19 21 24 22 20 23
REMARK SMILES IDX 22 24 21 25 23 26
REMARK H PARENT
ROOT
ATOM      1  C   UNL     1      24.596   2.742  51.526  1.00  0.00    +0.022 C 
ATOM      2  C   UNL     1      25.305   1.938  52.332  1.00  0.00    +0.054 C 
ATOM      3  C   UNL     1      26.792   2.012  52.596  1.00  0.00    +0.260 C 
ATOM      4  O   UNL     1      27.601   2.772  52.103  1.00  0.00    -0.269 OA
ATOM      5  N   UNL     1      27.032   1.016  53.530  1.00  0.00    -0.295 N 
ATOM      6  C   UNL     1      28.310   0.693  54.099  1.00  0.00    +0.155 C 
ATOM      7  C   UNL     1      25.864   0.319  53.854  1.00  0.00    +0.147 A 
ATOM      8  N   UNL     1      25.818  -0.695  54.724  1.00  0.00    -0.218 NA
ATOM      9  C   UNL     1      24.597  -1.220  54.876  1.00  0.00    +0.224 A 
ATOM     10  N   UNL     1      23.478  -0.827  54.240  1.00  0.00    -0.236 NA
ATOM     11  C   UNL     1      23.588   0.199  53.359  1.00  0.00    +0.084 A 
ATOM     12  C   UNL     1      24.790   0.827  53.142  1.00  0.00    +0.057 A 
ENDROOT
BRANCH   1  13
ATOM     13  C   UNL     1      25.109   3.864  50.731  1.00  0.00    -0.025 A 
ATOM     14  C   UNL     1      26.776   4.834  49.245  1.00  0.00    -0.051 A 
ATOM     15  C   UNL     1      26.109   6.063  49.317  1.00  0.00    +0.003 A 
ATOM     16  C   UNL     1      26.278   3.744  49.971  1.00  0.00    +0.011 A 
ATOM     17  C   UNL     1      24.950   6.192  50.082  1.00  0.00    +0.001 A 
ATOM     18  C   UNL     1      24.451   5.097  50.788  1.00  0.00    +0.008 A 
ATOM     19  C   UNL     1      28.036   4.698  48.444  1.00  0.00    +0.044 C 
ENDBRANCH   1  13
BRANCH  11  20
ATOM     20  C   UNL     1      22.338   0.541  52.681  1.00  0.00    +0.002 A 
ATOM     21  C   UNL     1      21.180   0.845  53.416  1.00  0.00    +0.010 A 
ATOM     22  C   UNL     1      22.277   0.590  51.279  1.00  0.00    +0.030 A 
ATOM     23  C   UNL     1      19.985   1.169  52.768  1.00  0.00    +0.002 A 
ATOM     24  C   UNL     1      21.082   0.915  50.638  1.00  0.00    +0.041 A 
ATOM     25  C   UNL     1      19.935   1.202  51.375  1.00  0.00    +0.020 A 
ATOM     26 Cl   UNL     1      21.023   0.962  48.919  1.00  0.00    -0.084 Cl
ENDBRANCH  11  20
TORSDOF 2
ENDMDL
MODEL 9
REMARK VINA RESULT:    -8.094      2.945      6.722
REMARK INTER + INTRA:          -9.474
REMARK INTER:                  -8.337
REMARK INTRA:                  -1.137
REMARK UNBOUND:                -0.433
REMARK SMILES Cc1cccc(C=C2C(=O)N(C)c3ncnc(-c4cccc(Cl)c4)c32)c1
REMARK SMILES IDX 7 1 8 2 9 3 10 4 11 5 12 6 13 7 14 8 15 9 16 10 17 11 25 12
REMARK SMILES IDX 6 13 2 14 3 15 26 16 4 17 5 18 1 19 18 20 19 21 24 22 20 23
REMARK SMILES IDX 22 24 21 25 23 26
REMARK H PARENT
ROOT
ATOM      1  C   UNL     1      20.006   1.359  51.140  1.00  0.00    +0.022 C 
ATOM      2  C   UNL     1      20.792   0.703  52.008  1.00  0.00    +0.054 C 
ATOM      3  C   UNL     1      20.347  -0.305  53.042  1.00  0.00    +0.260 C 
ATOM      4  O   UNL     1      19.214  -0.665  53.294  1.00  0.00    -0.269 OA
ATOM      5  N   UNL     1      21.520  -0.733  53.642  1.00  0.00    -0.295 N 
ATOM      6  C   UNL     1      21.615  -1.702  54.698  1.00  0.00    +0.155 C 
ATOM      7  C   UNL     1      22.639  -0.083  53.112  1.00  0.00    +0.147 A 
ATOM      8  N   UNL     1      23.893  -0.305  53.519  1.00  0.00    -0.218 NA
ATOM      9  C   UNL     1      24.807   0.433  52.879  1.00  0.00    +0.224 A 
ATOM     10  N   UNL     1      24.562   1.340  51.916  1.00  0.00    -0.236 NA
ATOM     11  C   UNL     1      23.268   1.533  51.553  1.00  0.00    +0.084 A 
ATOM     12  C   UNL     1      22.251   0.812  52.130  1.00  0.00    +0.057 A 
ENDROOT
BRANCH   1  13
ATOM     13  C   UNL     1      18.550   1.236  51.008  1.00  0.00    -0.025 A 
ATOM     14  C   UNL     1      16.580   0.165  50.060  1.00  0.00    -0.051 A 
ATOM     15  C   UNL     1      15.770   1.109  50.702  1.00  0.00    +0.003 A 
ATOM     16  C   UNL     1      17.972   0.247  50.205  1.00  0.00    +0.011 A 
ATOM     17  C   UNL     1      16.342   2.104  51.496  1.00  0.00    +0.001 A 
ATOM     18  C   UNL     1      17.727   2.168  51.648  1.00  0.00    +0.008 A 
ATOM     19  C   UNL     1      15.971  -0.891  49.186  1.00  0.00    +0.044 C 
ENDBRANCH   1  13
BRANCH  11  20
ATOM     20  C   UNL     1      23.082   2.561  50.530  1.00  0.00    +0.002 A 
ATOM     21  C   UNL     1      22.903   2.212  49.181  1.00  0.00    +0.010 A 
ATOM     22  C   UNL     1      23.059   3.920  50.881  1.00  0.00    +0.030 A 
ATOM     23  C   UNL     1      22.728   3.195  48.204  1.00  0.00    +0.002 A 
ATOM     24  C   UNL     1      22.882   4.897  49.902  1.00  0.00    +0.041 A 
ATOM     25  C   UNL     1      22.720   4.541  48.565  1.00  0.00    +0.020 A 
ATOM     26 Cl   UNL     1      22.866   6.559  50.350  1.00  0.00    -0.084 Cl
ENDBRANCH  11  20
TORSDOF 2
ENDMDL
