MODEL 1
REMARK VINA RESULT:    -8.673      0.000      0.000
REMARK INTER + INTRA:         -10.912
REMARK INTER:                  -9.941
REMARK INTRA:                  -0.971
REMARK UNBOUND:                -0.971
REMARK SMILES N#CC(C#N)=C(N)C(C#N)=C1C(=O)Nc2ncnc(N3CCOCC3)c21
REMARK SMILES IDX 1 1 2 2 3 3 4 4 5 5 6 6 7 7 8 10 9 11 11 12 10 13 12 14
REMARK SMILES IDX 26 15 13 16 14 17 19 18 15 19 18 20 16 21 17 22 20 24 21 25
REMARK SMILES IDX 25 26 22 27 24 28 23 29
REMARK H PARENT 7 8 7 9 14 23
ROOT
ATOM      1  N   UNL     1      26.661  -2.380  51.781  1.00  0.00    -0.192 NA
ATOM      2  C   UNL     1      27.011  -1.547  52.510  1.00  0.00    +0.113 C 
ATOM      3  C   UNL     1      27.380  -0.492  53.394  1.00  0.00    +0.153 C 
ATOM      4  C   UNL     1      28.727  -0.467  53.853  1.00  0.00    +0.113 C 
ATOM      5  N   UNL     1      29.828  -0.401  54.214  1.00  0.00    -0.192 NA
ATOM      6  C   UNL     1      26.491   0.462  53.783  1.00  0.00    +0.079 C 
ENDROOT
BRANCH   6   7
ATOM      7  N   UNL     1      26.786   1.520  54.644  1.00  0.00    -0.396 N 
ATOM      8  H   UNL     1      26.988   2.420  54.209  1.00  0.00    +0.156 HD
ATOM      9  H   UNL     1      26.179   1.615  55.458  1.00  0.00    +0.156 HD
ENDBRANCH   6   7
BRANCH   6  10
ATOM     10  C   UNL     1      25.083   0.429  53.313  1.00  0.00    +0.091 C 
ATOM     11  C   UNL     1      24.895   1.156  52.097  1.00  0.00    +0.102 C 
ATOM     12  C   UNL     1      24.092  -0.224  53.961  1.00  0.00    +0.074 C 
ATOM     13  N   UNL     1      24.897   1.774  51.115  1.00  0.00    -0.192 NA
ATOM     14  C   UNL     1      24.386  -1.053  55.198  1.00  0.00    +0.259 C 
ATOM     15  C   UNL     1      22.642  -0.382  53.717  1.00  0.00    +0.074 A 
ATOM     16  O   UNL     1      25.454  -1.236  55.748  1.00  0.00    -0.269 OA
ATOM     17  N   UNL     1      23.187  -1.612  55.559  1.00  0.00    -0.306 N 
ATOM     18  C   UNL     1      21.679   0.077  52.849  1.00  0.00    +0.142 A 
ATOM     19  C   UNL     1      22.169  -1.238  54.702  1.00  0.00    +0.146 A 
ATOM     20  N   UNL     1      20.393  -0.332  52.966  1.00  0.00    -0.219 NA
ATOM     21  N   UNL     1      20.922  -1.669  54.870  1.00  0.00    -0.218 NA
ATOM     22  C   UNL     1      20.077  -1.185  53.959  1.00  0.00    +0.226 A 
ATOM     23  H   UNL     1      23.055  -2.237  56.338  1.00  0.00    +0.171 HD
BRANCH  18  24
ATOM     24  N   UNL     1      21.988   1.017  51.846  1.00  0.00    -0.351 N 
ATOM     25  C   UNL     1      21.391   2.334  52.195  1.00  0.00    +0.146 C 
ATOM     26  C   UNL     1      21.463   0.562  50.528  1.00  0.00    +0.146 C 
ATOM     27  C   UNL     1      21.648   3.348  51.068  1.00  0.00    +0.181 C 
ATOM     28  C   UNL     1      21.718   1.634  49.456  1.00  0.00    +0.181 C 
ATOM     29  O   UNL     1      21.111   2.886  49.819  1.00  0.00    -0.378 OA
ENDBRANCH  18  24
ENDBRANCH   6  10
TORSDOF 3
ENDMDL
MODEL 2
REMARK VINA RESULT:    -7.780      2.042      5.862
REMARK INTER + INTRA:          -9.888
REMARK INTER:                  -8.847
REMARK INTRA:                  -1.041
REMARK UNBOUND:                -0.971
REMARK SMILES N#CC(C#N)=C(N)C(C#N)=C1C(=O)Nc2ncnc(N3CCOCC3)c21
REMARK SMILES IDX 1 1 2 2 3 3 4 4 5 5 6 6 7 7 8 10 9 11 11 12 10 13 12 14
REMARK SMILES IDX 26 15 13 16 14 17 19 18 15 19 18 20 16 21 17 22 20 24 21 25
REMARK SMILES IDX 25 26 22 27 24 28 23 29
REMARK H PARENT 7 8 7 9 14 23
ROOT
ATOM      1  N   UNL     1      23.515   5.126  53.093  1.00  0.00    -0.192 NA
ATOM      2  C   UNL     1      23.301   4.687  52.040  1.00  0.00    +0.113 C 
ATOM      3  C   UNL     1      23.070   4.090  50.767  1.00  0.00    +0.153 C 
ATOM      4  C   UNL     1      22.591   4.935  49.727  1.00  0.00    +0.113 C 
ATOM      5  N   UNL     1      22.235   5.608  48.851  1.00  0.00    -0.192 NA
ATOM      6  C   UNL     1      23.301   2.767  50.542  1.00  0.00    +0.079 C 
ENDROOT
BRANCH   6   7
ATOM      7  N   UNL     1      23.097   2.120  49.323  1.00  0.00    -0.396 N 
ATOM      8  H   UNL     1      22.261   1.542  49.247  1.00  0.00    +0.156 HD
ATOM      9  H   UNL     1      23.250   2.685  48.488  1.00  0.00    +0.156 HD
ENDBRANCH   6   7
BRANCH   6  10
ATOM     10  C   UNL     1      23.790   1.884  51.631  1.00  0.00    +0.091 C 
ATOM     11  C   UNL     1      25.208   1.950  51.794  1.00  0.00    +0.102 C 
ATOM     12  C   UNL     1      22.980   1.109  52.387  1.00  0.00    +0.074 C 
ATOM     13  N   UNL     1      26.357   2.110  51.812  1.00  0.00    -0.192 NA
ATOM     14  C   UNL     1      21.473   1.161  52.217  1.00  0.00    +0.259 C 
ATOM     15  C   UNL     1      23.219   0.148  53.485  1.00  0.00    +0.074 A 
ATOM     16  O   UNL     1      20.823   1.838  51.445  1.00  0.00    -0.269 OA
ATOM     17  N   UNL     1      20.966   0.308  53.163  1.00  0.00    -0.306 N 
ATOM     18  C   UNL     1      24.277  -0.429  54.149  1.00  0.00    +0.142 A 
ATOM     19  C   UNL     1      21.969  -0.279  53.912  1.00  0.00    +0.146 A 
ATOM     20  N   UNL     1      24.062  -1.309  55.156  1.00  0.00    -0.219 NA
ATOM     21  N   UNL     1      21.697  -1.142  54.888  1.00  0.00    -0.218 NA
ATOM     22  C   UNL     1      22.793  -1.618  55.481  1.00  0.00    +0.226 A 
ATOM     23  H   UNL     1      19.985   0.137  53.318  1.00  0.00    +0.171 HD
BRANCH  18  24
ATOM     24  N   UNL     1      25.608  -0.160  53.776  1.00  0.00    -0.351 N 
ATOM     25  C   UNL     1      26.187  -1.351  53.100  1.00  0.00    +0.146 C 
ATOM     26  C   UNL     1      26.424   0.186  54.973  1.00  0.00    +0.146 C 
ATOM     27  C   UNL     1      27.666  -1.102  52.762  1.00  0.00    +0.181 C 
ATOM     28  C   UNL     1      27.896   0.384  54.573  1.00  0.00    +0.181 C 
ATOM     29  O   UNL     1      28.426  -0.793  53.941  1.00  0.00    -0.378 OA
ENDBRANCH  18  24
ENDBRANCH   6  10
TORSDOF 3
ENDMDL
MODEL 3
REMARK VINA RESULT:    -7.662      1.825      2.724
REMARK INTER + INTRA:          -9.754
REMARK INTER:                  -8.932
REMARK INTRA:                  -0.822
REMARK UNBOUND:                -0.971
REMARK SMILES N#CC(C#N)=C(N)C(C#N)=C1C(=O)Nc2ncnc(N3CCOCC3)c21
REMARK SMILES IDX 1 1 2 2 3 3 4 4 5 5 6 6 7 7 8 10 9 11 11 12 10 13 12 14
REMARK SMILES IDX 26 15 13 16 14 17 19 18 15 19 18 20 16 21 17 22 20 24 21 25
REMARK SMILES IDX 25 26 22 27 24 28 23 29
REMARK H PARENT 7 8 7 9 14 23
ROOT
ATOM      1  N   UNL     1      28.013   2.875  54.178  1.00  0.00    -0.192 NA
ATOM      2  C   UNL     1      28.108   1.778  53.809  1.00  0.00    +0.113 C 
ATOM      3  C   UNL     1      28.160   0.434  53.338  1.00  0.00    +0.153 C 
ATOM      4  C   UNL     1      29.321  -0.325  53.657  1.00  0.00    +0.113 C 
ATOM      5  N   UNL     1      30.240  -0.978  53.931  1.00  0.00    -0.192 NA
ATOM      6  C   UNL     1      27.142  -0.114  52.620  1.00  0.00    +0.079 C 
ENDROOT
BRANCH   6   7
ATOM      7  N   UNL     1      27.128  -1.420  52.130  1.00  0.00    -0.396 N 
ATOM      8  H   UNL     1      26.230  -1.775  51.801  1.00  0.00    +0.156 HD
ATOM      9  H   UNL     1      27.892  -1.669  51.502  1.00  0.00    +0.156 HD
ENDBRANCH   6   7
BRANCH   6  10
ATOM     10  C   UNL     1      25.936   0.682  52.279  1.00  0.00    +0.091 C 
ATOM     11  C   UNL     1      26.191   1.655  51.264  1.00  0.00    +0.102 C 
ATOM     12  C   UNL     1      24.729   0.500  52.861  1.00  0.00    +0.074 C 
ATOM     13  N   UNL     1      26.545   2.388  50.436  1.00  0.00    -0.192 NA
ATOM     14  C   UNL     1      24.510  -0.616  53.866  1.00  0.00    +0.259 C 
ATOM     15  C   UNL     1      23.415   1.163  52.718  1.00  0.00    +0.074 A 
ATOM     16  O   UNL     1      25.311  -1.436  54.269  1.00  0.00    -0.269 OA
ATOM     17  N   UNL     1      23.184  -0.550  54.207  1.00  0.00    -0.306 N 
ATOM     18  C   UNL     1      22.857   2.231  52.054  1.00  0.00    +0.142 A 
ATOM     19  C   UNL     1      22.536   0.473  53.540  1.00  0.00    +0.146 A 
ATOM     20  N   UNL     1      21.542   2.521  52.197  1.00  0.00    -0.219 NA
ATOM     21  N   UNL     1      21.239   0.713  53.724  1.00  0.00    -0.218 NA
ATOM     22  C   UNL     1      20.798   1.751  53.012  1.00  0.00    +0.226 A 
ATOM     23  H   UNL     1      22.723  -1.176  54.847  1.00  0.00    +0.171 HD
BRANCH  18  24
ATOM     24  N   UNL     1      23.640   3.079  51.247  1.00  0.00    -0.351 N 
ATOM     25  C   UNL     1      23.679   4.440  51.844  1.00  0.00    +0.146 C 
ATOM     26  C   UNL     1      23.077   3.151  49.870  1.00  0.00    +0.146 C 
ATOM     27  C   UNL     1      24.461   5.398  50.930  1.00  0.00    +0.181 C 
ATOM     28  C   UNL     1      23.878   4.152  49.020  1.00  0.00    +0.181 C 
ATOM     29  O   UNL     1      23.878   5.459  49.619  1.00  0.00    -0.378 OA
ENDBRANCH  18  24
ENDBRANCH   6  10
TORSDOF 3
ENDMDL
MODEL 4
REMARK VINA RESULT:    -7.480      2.557      5.891
REMARK INTER + INTRA:          -9.545
REMARK INTER:                  -8.834
REMARK INTRA:                  -0.710
REMARK UNBOUND:                -0.971
REMARK SMILES N#CC(C#N)=C(N)C(C#N)=C1C(=O)Nc2ncnc(N3CCOCC3)c21
REMARK SMILES IDX 1 1 2 2 3 3 4 4 5 5 6 6 7 7 8 10 9 11 11 12 10 13 12 14
REMARK SMILES IDX 26 15 13 16 14 17 19 18 15 19 18 20 16 21 17 22 20 24 21 25
REMARK SMILES IDX 25 26 22 27 24 28 23 29
REMARK H PARENT 7 8 7 9 14 23
ROOT
ATOM      1  N   UNL     1      19.323   0.523  50.134  1.00  0.00    -0.192 NA
ATOM      2  C   UNL     1      19.340   0.254  51.263  1.00  0.00    +0.113 C 
ATOM      3  C   UNL     1      19.422  -0.048  52.654  1.00  0.00    +0.153 C 
ATOM      4  C   UNL     1      18.438  -0.925  53.190  1.00  0.00    +0.113 C 
ATOM      5  N   UNL     1      17.671  -1.666  53.648  1.00  0.00    -0.192 NA
ATOM      6  C   UNL     1      20.402   0.471  53.443  1.00  0.00    +0.079 C 
ENDROOT
BRANCH   6   7
ATOM      7  N   UNL     1      20.540   0.218  54.808  1.00  0.00    -0.396 N 
ATOM      8  H   UNL     1      20.119   0.895  55.444  1.00  0.00    +0.156 HD
ATOM      9  H   UNL     1      20.370  -0.743  55.103  1.00  0.00    +0.156 HD
ENDBRANCH   6   7
BRANCH   6  10
ATOM     10  C   UNL     1      21.421   1.395  52.885  1.00  0.00    +0.091 C 
ATOM     11  C   UNL     1      20.879   2.677  52.562  1.00  0.00    +0.102 C 
ATOM     12  C   UNL     1      22.719   1.060  52.708  1.00  0.00    +0.074 C 
ATOM     13  N   UNL     1      20.303   3.663  52.357  1.00  0.00    -0.192 NA
ATOM     14  C   UNL     1      23.243  -0.290  53.161  1.00  0.00    +0.259 C 
ATOM     15  C   UNL     1      23.893   1.774  52.161  1.00  0.00    +0.074 A 
ATOM     16  O   UNL     1      22.633  -1.196  53.695  1.00  0.00    -0.269 OA
ATOM     17  N   UNL     1      24.586  -0.275  52.887  1.00  0.00    -0.306 N 
ATOM     18  C   UNL     1      24.190   2.971  51.552  1.00  0.00    +0.142 A 
ATOM     19  C   UNL     1      24.977   0.921  52.315  1.00  0.00    +0.146 A 
ATOM     20  N   UNL     1      25.461   3.261  51.185  1.00  0.00    -0.219 NA
ATOM     21  N   UNL     1      26.242   1.149  51.970  1.00  0.00    -0.218 NA
ATOM     22  C   UNL     1      26.422   2.348  51.415  1.00  0.00    +0.226 A 
ATOM     23  H   UNL     1      25.224  -1.028  53.091  1.00  0.00    +0.171 HD
BRANCH  18  24
ATOM     24  N   UNL     1      23.182   3.908  51.252  1.00  0.00    -0.351 N 
ATOM     25  C   UNL     1      22.921   3.907  49.788  1.00  0.00    +0.146 C 
ATOM     26  C   UNL     1      23.592   5.272  51.688  1.00  0.00    +0.146 C 
ATOM     27  C   UNL     1      21.882   4.984  49.434  1.00  0.00    +0.181 C 
ATOM     28  C   UNL     1      22.532   6.304  51.271  1.00  0.00    +0.181 C 
ATOM     29  O   UNL     1      22.320   6.287  49.850  1.00  0.00    -0.378 OA
ENDBRANCH  18  24
ENDBRANCH   6  10
TORSDOF 3
ENDMDL
MODEL 5
REMARK VINA RESULT:    -7.437      2.178      4.080
REMARK INTER + INTRA:          -9.496
REMARK INTER:                  -8.674
REMARK INTRA:                  -0.822
REMARK UNBOUND:                -0.971
REMARK SMILES N#CC(C#N)=C(N)C(C#N)=C1C(=O)Nc2ncnc(N3CCOCC3)c21
REMARK SMILES IDX 1 1 2 2 3 3 4 4 5 5 6 6 7 7 8 10 9 11 11 12 10 13 12 14
REMARK SMILES IDX 26 15 13 16 14 17 19 18 15 19 18 20 16 21 17 22 20 24 21 25
REMARK SMILES IDX 25 26 22 27 24 28 23 29
REMARK H PARENT 7 8 7 9 14 23
ROOT
ATOM      1  N   UNL     1      26.916  -2.481  52.013  1.00  0.00    -0.192 NA
ATOM      2  C   UNL     1      27.530  -1.771  52.697  1.00  0.00    +0.113 C 
ATOM      3  C   UNL     1      28.232  -0.855  53.534  1.00  0.00    +0.153 C 
ATOM      4  C   UNL     1      29.605  -1.126  53.790  1.00  0.00    +0.113 C 
ATOM      5  N   UNL     1      30.736  -1.303  53.986  1.00  0.00    -0.192 NA
ATOM      6  C   UNL     1      27.625   0.241  54.065  1.00  0.00    +0.079 C 
ENDROOT
BRANCH   6   7
ATOM      7  N   UNL     1      28.251   1.175  54.890  1.00  0.00    -0.396 N 
ATOM      8  H   UNL     1      28.893   0.808  55.592  1.00  0.00    +0.156 HD
ATOM      9  H   UNL     1      28.623   2.002  54.424  1.00  0.00    +0.156 HD
ENDBRANCH   6   7
BRANCH   6  10
ATOM     10  C   UNL     1      26.189   0.516  53.807  1.00  0.00    +0.091 C 
ATOM     11  C   UNL     1      25.323  -0.320  54.577  1.00  0.00    +0.102 C 
ATOM     12  C   UNL     1      25.751   1.460  52.943  1.00  0.00    +0.074 C 
ATOM     13  N   UNL     1      24.752  -1.060  55.265  1.00  0.00    -0.192 NA
ATOM     14  C   UNL     1      26.728   2.375  52.228  1.00  0.00    +0.259 C 
ATOM     15  C   UNL     1      24.409   1.897  52.502  1.00  0.00    +0.074 A 
ATOM     16  O   UNL     1      27.941   2.394  52.309  1.00  0.00    -0.269 OA
ATOM     17  N   UNL     1      25.956   3.231  51.487  1.00  0.00    -0.306 N 
ATOM     18  C   UNL     1      23.091   1.541  52.674  1.00  0.00    +0.142 A 
ATOM     19  C   UNL     1      24.608   2.970  51.645  1.00  0.00    +0.146 A 
ATOM     20  N   UNL     1      22.103   2.238  52.063  1.00  0.00    -0.219 NA
ATOM     21  N   UNL     1      23.680   3.687  51.014  1.00  0.00    -0.218 NA
ATOM     22  C   UNL     1      22.439   3.274  51.274  1.00  0.00    +0.226 A 
ATOM     23  H   UNL     1      26.314   3.976  50.911  1.00  0.00    +0.171 HD
BRANCH  18  24
ATOM     24  N   UNL     1      22.733   0.421  53.449  1.00  0.00    -0.351 N 
ATOM     25  C   UNL     1      22.490  -0.745  52.558  1.00  0.00    +0.146 C 
ATOM     26  C   UNL     1      21.507   0.709  54.244  1.00  0.00    +0.146 C 
ATOM     27  C   UNL     1      22.016  -1.953  53.383  1.00  0.00    +0.181 C 
ATOM     28  C   UNL     1      21.064  -0.547  55.013  1.00  0.00    +0.181 C 
ATOM     29  O   UNL     1      20.822  -1.645  54.118  1.00  0.00    -0.378 OA
ENDBRANCH  18  24
ENDBRANCH   6  10
TORSDOF 3
ENDMDL
MODEL 6
REMARK VINA RESULT:    -7.066      1.936      2.767
REMARK INTER + INTRA:          -9.070
REMARK INTER:                  -8.308
REMARK INTRA:                  -0.762
REMARK UNBOUND:                -0.971
REMARK SMILES N#CC(C#N)=C(N)C(C#N)=C1C(=O)Nc2ncnc(N3CCOCC3)c21
REMARK SMILES IDX 1 1 2 2 3 3 4 4 5 5 6 6 7 7 8 10 9 11 11 12 10 13 12 14
REMARK SMILES IDX 26 15 13 16 14 17 19 18 15 19 18 20 16 21 17 22 20 24 21 25
REMARK SMILES IDX 25 26 22 27 24 28 23 29
REMARK H PARENT 7 8 7 9 14 23
ROOT
ATOM      1  N   UNL     1      23.962   4.173  53.625  1.00  0.00    -0.192 NA
ATOM      2  C   UNL     1      24.646   3.250  53.453  1.00  0.00    +0.113 C 
ATOM      3  C   UNL     1      25.430   2.082  53.227  1.00  0.00    +0.153 C 
ATOM      4  C   UNL     1      26.799   2.130  53.612  1.00  0.00    +0.113 C 
ATOM      5  N   UNL     1      27.910   2.128  53.949  1.00  0.00    -0.192 NA
ATOM      6  C   UNL     1      24.898   0.958  52.674  1.00  0.00    +0.079 C 
ENDROOT
BRANCH   6   7
ATOM      7  N   UNL     1      25.607  -0.218  52.425  1.00  0.00    -0.396 N 
ATOM      8  H   UNL     1      26.546  -0.113  52.041  1.00  0.00    +0.156 HD
ATOM      9  H   UNL     1      25.569  -0.925  53.160  1.00  0.00    +0.156 HD
ENDBRANCH   6   7
BRANCH   6  10
ATOM     10  C   UNL     1      23.472   0.913  52.262  1.00  0.00    +0.091 C 
ATOM     11  C   UNL     1      23.214   1.697  51.096  1.00  0.00    +0.102 C 
ATOM     12  C   UNL     1      22.526   0.202  52.916  1.00  0.00    +0.074 C 
ATOM     13  N   UNL     1      23.159   2.365  50.149  1.00  0.00    -0.192 NA
ATOM     14  C   UNL     1      22.892  -0.683  54.094  1.00  0.00    +0.259 C 
ATOM     15  C   UNL     1      21.071   0.020  52.725  1.00  0.00    +0.074 A 
ATOM     16  O   UNL     1      23.987  -0.867  54.588  1.00  0.00    -0.269 OA
ATOM     17  N   UNL     1      21.724  -1.291  54.475  1.00  0.00    -0.306 N 
ATOM     18  C   UNL     1      20.060   0.499  51.924  1.00  0.00    +0.142 A 
ATOM     19  C   UNL     1      20.662  -0.898  53.682  1.00  0.00    +0.146 A 
ATOM     20  N   UNL     1      18.791   0.051  52.074  1.00  0.00    -0.219 NA
ATOM     21  N   UNL     1      19.433  -1.369  53.880  1.00  0.00    -0.218 NA
ATOM     22  C   UNL     1      18.538  -0.860  53.032  1.00  0.00    +0.226 A 
ATOM     23  H   UNL     1      21.641  -1.958  55.225  1.00  0.00    +0.171 HD
BRANCH  18  24
ATOM     24  N   UNL     1      20.303   1.497  50.961  1.00  0.00    -0.351 N 
ATOM     25  C   UNL     1      19.741   2.791  51.430  1.00  0.00    +0.146 C 
ATOM     26  C   UNL     1      19.683   1.124  49.658  1.00  0.00    +0.146 C 
ATOM     27  C   UNL     1      19.924   3.871  50.352  1.00  0.00    +0.181 C 
ATOM     28  C   UNL     1      19.868   2.259  48.638  1.00  0.00    +0.181 C 
ATOM     29  O   UNL     1      19.297   3.487  49.118  1.00  0.00    -0.378 OA
ENDBRANCH  18  24
ENDBRANCH   6  10
TORSDOF 3
ENDMDL
MODEL 7
REMARK VINA RESULT:    -6.949      2.189      5.927
REMARK INTER + INTRA:          -8.936
REMARK INTER:                  -7.972
REMARK INTRA:                  -0.964
REMARK UNBOUND:                -0.971
REMARK SMILES N#CC(C#N)=C(N)C(C#N)=C1C(=O)Nc2ncnc(N3CCOCC3)c21
REMARK SMILES IDX 1 1 2 2 3 3 4 4 5 5 6 6 7 7 8 10 9 11 11 12 10 13 12 14
REMARK SMILES IDX 26 15 13 16 14 17 19 18 15 19 18 20 16 21 17 22 20 24 21 25
REMARK SMILES IDX 25 26 22 27 24 28 23 29
REMARK H PARENT 7 8 7 9 14 23
ROOT
ATOM      1  N   UNL     1      21.653   0.644  48.868  1.00  0.00    -0.192 NA
ATOM      2  C   UNL     1      21.297   1.667  49.285  1.00  0.00    +0.113 C 
ATOM      3  C   UNL     1      20.888   2.906  49.859  1.00  0.00    +0.153 C 
ATOM      4  C   UNL     1      20.010   3.722  49.091  1.00  0.00    +0.113 C 
ATOM      5  N   UNL     1      19.266   4.391  48.503  1.00  0.00    -0.192 NA
ATOM      6  C   UNL     1      21.307   3.298  51.093  1.00  0.00    +0.079 C 
ENDROOT
BRANCH   6   7
ATOM      7  N   UNL     1      20.946   4.495  51.712  1.00  0.00    -0.396 N 
ATOM      8  H   UNL     1      21.577   5.285  51.582  1.00  0.00    +0.156 HD
ATOM      9  H   UNL     1      19.967   4.765  51.622  1.00  0.00    +0.156 HD
ENDBRANCH   6   7
BRANCH   6  10
ATOM     10  C   UNL     1      22.232   2.451  51.888  1.00  0.00    +0.091 C 
ATOM     11  C   UNL     1      23.601   2.825  51.718  1.00  0.00    +0.102 C 
ATOM     12  C   UNL     1      21.822   1.443  52.690  1.00  0.00    +0.074 C 
ATOM     13  N   UNL     1      24.658   3.243  51.485  1.00  0.00    -0.192 NA
ATOM     14  C   UNL     1      20.344   1.163  52.894  1.00  0.00    +0.259 C 
ATOM     15  C   UNL     1      22.529   0.463  53.542  1.00  0.00    +0.074 A 
ATOM     16  O   UNL     1      19.392   1.743  52.410  1.00  0.00    -0.269 OA
ATOM     17  N   UNL     1      20.286   0.131  53.794  1.00  0.00    -0.306 N 
ATOM     18  C   UNL     1      23.817   0.084  53.840  1.00  0.00    +0.142 A 
ATOM     19  C   UNL     1      21.547  -0.279  54.185  1.00  0.00    +0.146 A 
ATOM     20  N   UNL     1      24.055  -0.914  54.725  1.00  0.00    -0.219 NA
ATOM     21  N   UNL     1      21.720  -1.270  55.056  1.00  0.00    -0.218 NA
ATOM     22  C   UNL     1      23.005  -1.535  55.293  1.00  0.00    +0.226 A 
ATOM     23  H   UNL     1      19.435  -0.275  54.150  1.00  0.00    +0.171 HD
BRANCH  18  24
ATOM     24  N   UNL     1      24.921   0.686  53.206  1.00  0.00    -0.351 N 
ATOM     25  C   UNL     1      25.652  -0.332  52.405  1.00  0.00    +0.146 C 
ATOM     26  C   UNL     1      25.838   1.285  54.215  1.00  0.00    +0.146 C 
ATOM     27  C   UNL     1      26.908   0.293  51.773  1.00  0.00    +0.181 C 
ATOM     28  C   UNL     1      27.088   1.855  53.524  1.00  0.00    +0.181 C 
ATOM     29  O   UNL     1      27.778   0.840  52.776  1.00  0.00    -0.378 OA
ENDBRANCH  18  24
ENDBRANCH   6  10
TORSDOF 3
ENDMDL
MODEL 8
REMARK VINA RESULT:    -6.714      3.661      7.602
REMARK INTER + INTRA:          -8.667
REMARK INTER:                  -7.670
REMARK INTRA:                  -0.997
REMARK UNBOUND:                -0.971
REMARK SMILES N#CC(C#N)=C(N)C(C#N)=C1C(=O)Nc2ncnc(N3CCOCC3)c21
REMARK SMILES IDX 1 1 2 2 3 3 4 4 5 5 6 6 7 7 8 10 9 11 11 12 10 13 12 14
REMARK SMILES IDX 26 15 13 16 14 17 19 18 15 19 18 20 16 21 17 22 20 24 21 25
REMARK SMILES IDX 25 26 22 27 24 28 23 29
REMARK H PARENT 7 8 7 9 14 23
ROOT
ATOM      1  N   UNL     1      16.389   3.642  52.419  1.00  0.00    -0.192 NA
ATOM      2  C   UNL     1      16.216   2.783  51.658  1.00  0.00    +0.113 C 
ATOM      3  C   UNL     1      16.071   1.719  50.721  1.00  0.00    +0.153 C 
ATOM      4  C   UNL     1      14.779   1.512  50.163  1.00  0.00    +0.113 C 
ATOM      5  N   UNL     1      13.744   1.342  49.665  1.00  0.00    -0.192 NA
ATOM      6  C   UNL     1      17.122   0.932  50.362  1.00  0.00    +0.079 C 
ENDROOT
BRANCH   6   7
ATOM      7  N   UNL     1      17.051  -0.124  49.452  1.00  0.00    -0.396 N 
ATOM      8  H   UNL     1      16.152  -0.272  48.994  1.00  0.00    +0.156 HD
ATOM      9  H   UNL     1      17.832  -0.205  48.802  1.00  0.00    +0.156 HD
ENDBRANCH   6   7
BRANCH   6  10
ATOM     10  C   UNL     1      18.468   1.142  50.953  1.00  0.00    +0.091 C 
ATOM     11  C   UNL     1      19.152   2.255  50.376  1.00  0.00    +0.102 C 
ATOM     12  C   UNL     1      18.984   0.367  51.934  1.00  0.00    +0.074 C 
ATOM     13  N   UNL     1      19.578   3.181  49.820  1.00  0.00    -0.192 NA
ATOM     14  C   UNL     1      18.162  -0.742  52.564  1.00  0.00    +0.259 C 
ATOM     15  C   UNL     1      20.276   0.355  52.652  1.00  0.00    +0.074 A 
ATOM     16  O   UNL     1      17.023  -1.078  52.304  1.00  0.00    -0.269 OA
ATOM     17  N   UNL     1      18.956  -1.278  53.544  1.00  0.00    -0.306 N 
ATOM     18  C   UNL     1      21.489   1.004  52.622  1.00  0.00    +0.142 A 
ATOM     19  C   UNL     1      20.182  -0.644  53.612  1.00  0.00    +0.146 A 
ATOM     20  N   UNL     1      22.466   0.683  53.502  1.00  0.00    -0.219 NA
ATOM     21  N   UNL     1      21.108  -1.007  54.497  1.00  0.00    -0.218 NA
ATOM     22  C   UNL     1      22.231  -0.295  54.397  1.00  0.00    +0.226 A 
ATOM     23  H   UNL     1      18.683  -2.028  54.159  1.00  0.00    +0.171 HD
BRANCH  18  24
ATOM     24  N   UNL     1      21.766   1.986  51.650  1.00  0.00    -0.351 N 
ATOM     25  C   UNL     1      22.757   1.457  50.676  1.00  0.00    +0.146 C 
ATOM     26  C   UNL     1      22.304   3.217  52.294  1.00  0.00    +0.146 C 
ATOM     27  C   UNL     1      23.133   2.546  49.658  1.00  0.00    +0.181 C 
ATOM     28  C   UNL     1      22.697   4.248  51.223  1.00  0.00    +0.181 C 
ATOM     29  O   UNL     1      23.667   3.708  50.312  1.00  0.00    -0.378 OA
ENDBRANCH  18  24
ENDBRANCH   6  10
TORSDOF 3
ENDMDL
MODEL 9
REMARK VINA RESULT:    -6.674      4.078      6.847
REMARK INTER + INTRA:          -8.621
REMARK INTER:                  -7.658
REMARK INTRA:                  -0.963
REMARK UNBOUND:                -0.971
REMARK SMILES N#CC(C#N)=C(N)C(C#N)=C1C(=O)Nc2ncnc(N3CCOCC3)c21
REMARK SMILES IDX 1 1 2 2 3 3 4 4 5 5 6 6 7 7 8 10 9 11 11 12 10 13 12 14
REMARK SMILES IDX 26 15 13 16 14 17 19 18 15 19 18 20 16 21 17 22 20 24 21 25
REMARK SMILES IDX 25 26 22 27 24 28 23 29
REMARK H PARENT 7 8 7 9 14 23
ROOT
ATOM      1  N   UNL     1      22.161   1.340  49.937  1.00  0.00    -0.192 NA
ATOM      2  C   UNL     1      22.825   1.381  50.889  1.00  0.00    +0.113 C 
ATOM      3  C   UNL     1      23.662   1.493  52.036  1.00  0.00    +0.153 C 
ATOM      4  C   UNL     1      23.815   0.333  52.847  1.00  0.00    +0.113 C 
ATOM      5  N   UNL     1      23.987  -0.606  53.508  1.00  0.00    -0.192 NA
ATOM      6  C   UNL     1      24.301   2.653  52.348  1.00  0.00    +0.079 C 
ENDROOT
BRANCH   6   7
ATOM      7  N   UNL     1      25.133   2.831  53.453  1.00  0.00    -0.396 N 
ATOM      8  H   UNL     1      24.843   3.530  54.136  1.00  0.00    +0.156 HD
ATOM      9  H   UNL     1      25.473   1.978  53.897  1.00  0.00    +0.156 HD
ENDBRANCH   6   7
BRANCH   6  10
ATOM     10  C   UNL     1      24.132   3.865  51.507  1.00  0.00    +0.091 C 
ATOM     11  C   UNL     1      22.880   4.517  51.730  1.00  0.00    +0.102 C 
ATOM     12  C   UNL     1      25.064   4.306  50.632  1.00  0.00    +0.074 C 
ATOM     13  N   UNL     1      21.837   4.934  52.020  1.00  0.00    -0.192 NA
ATOM     14  C   UNL     1      26.410   3.615  50.515  1.00  0.00    +0.259 C 
ATOM     15  C   UNL     1      25.121   5.440  49.685  1.00  0.00    +0.074 A 
ATOM     16  O   UNL     1      26.817   2.647  51.127  1.00  0.00    -0.269 OA
ATOM     17  N   UNL     1      27.118   4.341  49.593  1.00  0.00    -0.306 N 
ATOM     18  C   UNL     1      24.308   6.448  49.220  1.00  0.00    +0.142 A 
ATOM     19  C   UNL     1      26.384   5.409  49.111  1.00  0.00    +0.146 A 
ATOM     20  N   UNL     1      24.764   7.335  48.304  1.00  0.00    -0.219 NA
ATOM     21  N   UNL     1      26.884   6.247  48.206  1.00  0.00    -0.218 NA
ATOM     22  C   UNL     1      26.023   7.199  47.847  1.00  0.00    +0.226 A 
ATOM     23  H   UNL     1      28.065   4.144  49.309  1.00  0.00    +0.171 HD
BRANCH  18  24
ATOM     24  N   UNL     1      22.970   6.561  49.646  1.00  0.00    -0.351 N 
ATOM     25  C   UNL     1      22.060   6.149  48.544  1.00  0.00    +0.146 C 
ATOM     26  C   UNL     1      22.669   7.964  50.048  1.00  0.00    +0.146 C 
ATOM     27  C   UNL     1      20.594   6.347  48.966  1.00  0.00    +0.181 C 
ATOM     28  C   UNL     1      21.183   8.103  50.419  1.00  0.00    +0.181 C 
ATOM     29  O   UNL     1      20.336   7.714  49.325  1.00  0.00    -0.378 OA
ENDBRANCH  18  24
ENDBRANCH   6  10
TORSDOF 3
ENDMDL
