REMARK SMILES O=C(c1ccc(C/N=N/Nc2ccc3ncnc(-c4ccccc4)c3c2)[nH]1)N1CCOCC1
REMARK SMILES IDX 8 1 9 2 7 3 6 4 3 5 4 6 27 7 5 8 2 10 1 11 28 12 29 13 33 14
REMARK SMILES IDX 30 15 32 16 31 17 10 18 11 20 12 21 26 22 13 23 25 24 14 25
REMARK SMILES IDX 18 26 15 27 17 28 16 29 19 30 20 31 24 32 21 33 23 34 22 35
REMARK H PARENT 27 9 10 19
ROOT
ATOM      1  N   UNL     1      -0.327  -2.776   1.623  1.00  0.00    -0.165 NA
ATOM      2  N   UNL     1      -0.477  -2.373   0.453  1.00  0.00    -0.074 NA
ENDROOT
BRANCH   1   3
ATOM      3  C   UNL     1       1.042  -3.243   1.887  1.00  0.00    +0.222 C 
BRANCH   3   4
ATOM      4  C   UNL     1       2.012  -2.105   1.889  1.00  0.00    +0.039 A 
ATOM      5  C   UNL     1       3.598  -0.739   1.026  1.00  0.00    +0.104 A 
ATOM      6  C   UNL     1       3.272  -0.279   2.292  1.00  0.00    +0.034 A 
ATOM      7  N   UNL     1       2.787  -1.828   0.791  1.00  0.00    -0.353 N 
ATOM      8  C   UNL     1       2.300  -1.150   2.844  1.00  0.00    +0.026 A 
ATOM      9  H   UNL     1       2.759  -2.319  -0.094  1.00  0.00    +0.166 HD
BRANCH   5  10
ATOM     10  C   UNL     1       4.486  -0.243  -0.003  1.00  0.00    +0.270 C 
ATOM     11  O   UNL     1       4.264  -0.505  -1.179  1.00  0.00    -0.267 OA
ATOM     12  N   UNL     1       5.575   0.550   0.370  1.00  0.00    -0.333 N 
ATOM     13  C   UNL     1       6.346   1.125  -0.735  1.00  0.00    +0.148 C 
ATOM     14  C   UNL     1       6.410   0.184   1.521  1.00  0.00    +0.148 C 
ATOM     15  C   UNL     1       7.286   2.228  -0.255  1.00  0.00    +0.181 C 
ATOM     16  C   UNL     1       7.343   1.327   1.918  1.00  0.00    +0.181 C 
ATOM     17  O   UNL     1       8.134   1.756   0.803  1.00  0.00    -0.378 OA
ENDBRANCH   5  10
ENDBRANCH   3   4
ENDBRANCH   1   3
BRANCH   2  18
ATOM     18  N   UNL     1      -1.768  -2.011   0.351  1.00  0.00    -0.260 N 
ATOM     19  H   UNL     1      -2.271  -2.033   1.233  1.00  0.00    +0.192 HD
BRANCH  18  20
ATOM     20  C   UNL     1      -2.102  -0.912  -0.463  1.00  0.00    +0.059 A 
ATOM     21  C   UNL     1      -1.216  -0.332  -1.364  1.00  0.00    +0.030 A 
ATOM     22  C   UNL     1      -3.416  -0.437  -0.456  1.00  0.00    +0.040 A 
ATOM     23  C   UNL     1      -1.616   0.742  -2.170  1.00  0.00    +0.031 A 
ATOM     24  C   UNL     1      -3.830   0.635  -1.290  1.00  0.00    +0.029 A 
ATOM     25  C   UNL     1      -2.908   1.245  -2.141  1.00  0.00    +0.074 A 
ATOM     26  C   UNL     1      -5.126   1.173  -1.342  1.00  0.00    +0.081 A 
ATOM     27  N   UNL     1      -3.225   2.277  -2.933  1.00  0.00    -0.236 NA
ATOM     28  N   UNL     1      -5.462   2.226  -2.120  1.00  0.00    -0.236 NA
ATOM     29  C   UNL     1      -4.486   2.723  -2.877  1.00  0.00    +0.223 A 
BRANCH  26  30
ATOM     30  C   UNL     1      -6.239   0.637  -0.548  1.00  0.00    +0.001 A 
ATOM     31  C   UNL     1      -6.665   1.284   0.624  1.00  0.00    +0.010 A 
ATOM     32  C   UNL     1      -6.896  -0.541  -0.939  1.00  0.00    +0.010 A 
ATOM     33  C   UNL     1      -7.705   0.756   1.396  1.00  0.00    +0.001 A 
ATOM     34  C   UNL     1      -7.935  -1.068  -0.169  1.00  0.00    +0.001 A 
ATOM     35  C   UNL     1      -8.336  -0.421   1.000  1.00  0.00    +0.000 A 
ENDBRANCH  26  30
ENDBRANCH  18  20
ENDBRANCH   2  18
TORSDOF 6
