MODEL 1
REMARK VINA RESULT:    -7.974      0.000      0.000
REMARK INTER + INTRA:         -10.113
REMARK INTER:                  -9.606
REMARK INTRA:                  -0.507
REMARK UNBOUND:                -0.507
REMARK SMILES Cc1cc(-c2ccccn2)[nH]c1C=C(N)C(C#N)=C(C#N)C#N
REMARK SMILES IDX 13 1 14 2 12 3 2 4 3 5 4 6 11 7 1 8 5 10 6 11 10 12 7 13
REMARK SMILES IDX 9 14 8 15 15 16 16 19 17 20 19 21 18 22 20 23 22 24 21 25
REMARK SMILES IDX 23 26
REMARK H PARENT 11 9 15 17 15 18
ROOT
ATOM      1  C   UNL     1      23.757   2.098  51.817  1.00  0.00    +0.053 C 
ATOM      2  C   UNL     1      23.772   3.370  52.273  1.00  0.00    +0.054 C 
ENDROOT
BRANCH   1   3
ATOM      3  C   UNL     1      24.311   1.001  52.524  1.00  0.00    +0.044 A 
ATOM      4  C   UNL     1      23.752  -0.008  53.290  1.00  0.00    -0.025 A 
ATOM      5  C   UNL     1      24.827  -0.846  53.710  1.00  0.00    +0.034 A 
ATOM      6  C   UNL     1      26.006  -0.351  53.180  1.00  0.00    +0.065 A 
ATOM      7  N   UNL     1      25.659   0.755  52.437  1.00  0.00    -0.353 N 
ATOM      8  C   UNL     1      22.315  -0.185  53.627  1.00  0.00    +0.046 C 
ATOM      9  H   UNL     1      26.339   1.306  51.924  1.00  0.00    +0.167 HD
BRANCH   6  10
ATOM     10  C   UNL     1      27.395  -0.788  53.274  1.00  0.00    +0.086 A 
ATOM     11  C   UNL     1      28.445   0.083  53.535  1.00  0.00    +0.030 A 
ATOM     12  N   UNL     1      27.568  -2.119  53.080  1.00  0.00    -0.255 NA
ATOM     13  C   UNL     1      29.736  -0.434  53.603  1.00  0.00    +0.004 A 
ATOM     14  C   UNL     1      28.832  -2.590  53.154  1.00  0.00    +0.112 A 
ATOM     15  C   UNL     1      29.937  -1.795  53.409  1.00  0.00    +0.020 A 
ENDBRANCH   6  10
ENDBRANCH   1   3
BRANCH   2  16
ATOM     16  N   UNL     1      24.304   3.780  53.486  1.00  0.00    -0.398 N 
ATOM     17  H   UNL     1      24.268   3.073  54.218  1.00  0.00    +0.156 HD
ATOM     18  H   UNL     1      25.265   4.120  53.392  1.00  0.00    +0.156 HD
ENDBRANCH   2  16
BRANCH   2  19
ATOM     19  C   UNL     1      23.219   4.425  51.417  1.00  0.00    +0.103 C 
ATOM     20  C   UNL     1      24.169   5.224  50.707  1.00  0.00    +0.103 C 
ATOM     21  C   UNL     1      21.889   4.642  51.303  1.00  0.00    +0.149 C 
ATOM     22  N   UNL     1      24.937   5.876  50.133  1.00  0.00    -0.192 NA
ATOM     23  C   UNL     1      20.945   3.860  52.030  1.00  0.00    +0.112 C 
ATOM     24  C   UNL     1      21.372   5.668  50.463  1.00  0.00    +0.112 C 
ATOM     25  N   UNL     1      20.163   3.244  52.626  1.00  0.00    -0.192 NA
ATOM     26  N   UNL     1      20.956   6.506  49.778  1.00  0.00    -0.192 NA
ENDBRANCH   2  19
TORSDOF 4
ENDMDL
MODEL 2
REMARK VINA RESULT:    -7.819      1.184      2.401
REMARK INTER + INTRA:          -9.926
REMARK INTER:                  -9.352
REMARK INTRA:                  -0.574
REMARK UNBOUND:                -0.507
REMARK SMILES Cc1cc(-c2ccccn2)[nH]c1C=C(N)C(C#N)=C(C#N)C#N
REMARK SMILES IDX 13 1 14 2 12 3 2 4 3 5 4 6 11 7 1 8 5 10 6 11 10 12 7 13
REMARK SMILES IDX 9 14 8 15 15 16 16 19 17 20 19 21 18 22 20 23 22 24 21 25
REMARK SMILES IDX 23 26
REMARK H PARENT 11 9 15 17 15 18
ROOT
ATOM      1  C   UNL     1      23.917   1.997  51.337  1.00  0.00    +0.053 C 
ATOM      2  C   UNL     1      23.930   3.315  51.633  1.00  0.00    +0.054 C 
ENDROOT
BRANCH   1   3
ATOM      3  C   UNL     1      24.408   0.989  52.206  1.00  0.00    +0.044 A 
ATOM      4  C   UNL     1      23.795   0.158  53.128  1.00  0.00    -0.025 A 
ATOM      5  C   UNL     1      24.818  -0.678  53.668  1.00  0.00    +0.034 A 
ATOM      6  C   UNL     1      26.017  -0.360  53.055  1.00  0.00    +0.065 A 
ATOM      7  N   UNL     1      25.734   0.636  52.147  1.00  0.00    -0.353 N 
ATOM      8  C   UNL     1      22.357   0.141  53.502  1.00  0.00    +0.046 C 
ATOM      9  H   UNL     1      26.440   1.048  51.547  1.00  0.00    +0.167 HD
BRANCH   6  10
ATOM     10  C   UNL     1      27.374  -0.875  53.206  1.00  0.00    +0.086 A 
ATOM     11  C   UNL     1      28.452  -0.073  53.557  1.00  0.00    +0.030 A 
ATOM     12  N   UNL     1      27.488  -2.205  52.969  1.00  0.00    -0.255 NA
ATOM     13  C   UNL     1      29.709  -0.662  53.673  1.00  0.00    +0.004 A 
ATOM     14  C   UNL     1      28.719  -2.747  53.092  1.00  0.00    +0.112 A 
ATOM     15  C   UNL     1      29.848  -2.024  53.437  1.00  0.00    +0.020 A 
ENDBRANCH   6  10
ENDBRANCH   1   3
BRANCH   2  16
ATOM     16  N   UNL     1      24.398   3.865  52.816  1.00  0.00    -0.398 N 
ATOM     17  H   UNL     1      23.751   3.785  53.599  1.00  0.00    +0.156 HD
ATOM     18  H   UNL     1      25.307   3.483  53.089  1.00  0.00    +0.156 HD
ENDBRANCH   2  16
BRANCH   2  19
ATOM     19  C   UNL     1      23.448   4.262  50.622  1.00  0.00    +0.103 C 
ATOM     20  C   UNL     1      22.089   4.688  50.755  1.00  0.00    +0.103 C 
ATOM     21  C   UNL     1      24.233   4.708  49.615  1.00  0.00    +0.149 C 
ATOM     22  N   UNL     1      20.987   5.032  50.857  1.00  0.00    -0.192 NA
ATOM     23  C   UNL     1      25.579   4.264  49.471  1.00  0.00    +0.112 C 
ATOM     24  C   UNL     1      23.746   5.631  48.647  1.00  0.00    +0.112 C 
ATOM     25  N   UNL     1      26.671   3.901  49.328  1.00  0.00    -0.192 NA
ATOM     26  N   UNL     1      23.345   6.383  47.860  1.00  0.00    -0.192 NA
ENDBRANCH   2  19
TORSDOF 4
ENDMDL
MODEL 3
REMARK VINA RESULT:    -7.645      3.413      7.300
REMARK INTER + INTRA:          -9.716
REMARK INTER:                  -9.207
REMARK INTRA:                  -0.509
REMARK UNBOUND:                -0.507
REMARK SMILES Cc1cc(-c2ccccn2)[nH]c1C=C(N)C(C#N)=C(C#N)C#N
REMARK SMILES IDX 13 1 14 2 12 3 2 4 3 5 4 6 11 7 1 8 5 10 6 11 10 12 7 13
REMARK SMILES IDX 9 14 8 15 15 16 16 19 17 20 19 21 18 22 20 23 22 24 21 25
REMARK SMILES IDX 23 26
REMARK H PARENT 11 9 15 17 15 18
ROOT
ATOM      1  C   UNL     1      23.983   0.771  53.544  1.00  0.00    +0.053 C 
ATOM      2  C   UNL     1      25.150   0.243  53.113  1.00  0.00    +0.054 C 
ENDROOT
BRANCH   1   3
ATOM      3  C   UNL     1      22.790   0.021  53.703  1.00  0.00    +0.044 A 
ATOM      4  C   UNL     1      22.419  -0.987  54.576  1.00  0.00    -0.025 A 
ATOM      5  C   UNL     1      21.066  -1.318  54.267  1.00  0.00    +0.034 A 
ATOM      6  C   UNL     1      20.635  -0.499  53.238  1.00  0.00    +0.065 A 
ATOM      7  N   UNL     1      21.694   0.328  52.935  1.00  0.00    -0.353 N 
ATOM      8  C   UNL     1      23.262  -1.619  55.625  1.00  0.00    +0.046 C 
ATOM      9  H   UNL     1      21.643   1.042  52.217  1.00  0.00    +0.167 HD
BRANCH   6  10
ATOM     10  C   UNL     1      19.368  -0.391  52.523  1.00  0.00    +0.086 A 
ATOM     11  C   UNL     1      19.246   0.248  51.295  1.00  0.00    +0.030 A 
ATOM     12  N   UNL     1      18.322  -0.965  53.166  1.00  0.00    -0.255 NA
ATOM     13  C   UNL     1      17.990   0.299  50.695  1.00  0.00    +0.004 A 
ATOM     14  C   UNL     1      17.117  -0.901  52.557  1.00  0.00    +0.112 A 
ATOM     15  C   UNL     1      16.904  -0.285  51.335  1.00  0.00    +0.020 A 
ENDBRANCH   6  10
ENDBRANCH   1   3
BRANCH   2  16
ATOM     16  N   UNL     1      25.355  -1.089  52.789  1.00  0.00    -0.398 N 
ATOM     17  H   UNL     1      25.813  -1.631  53.520  1.00  0.00    +0.156 HD
ATOM     18  H   UNL     1      24.488  -1.558  52.513  1.00  0.00    +0.156 HD
ENDBRANCH   2  16
BRANCH   2  19
ATOM     19  C   UNL     1      26.297   1.139  52.933  1.00  0.00    +0.103 C 
ATOM     20  C   UNL     1      26.330   1.881  51.711  1.00  0.00    +0.103 C 
ATOM     21  C   UNL     1      27.274   1.261  53.859  1.00  0.00    +0.149 C 
ATOM     22  N   UNL     1      26.363   2.482  50.719  1.00  0.00    -0.192 NA
ATOM     23  C   UNL     1      27.251   0.503  55.066  1.00  0.00    +0.112 C 
ATOM     24  C   UNL     1      28.377   2.140  53.667  1.00  0.00    +0.112 C 
ATOM     25  N   UNL     1      27.256  -0.118  56.046  1.00  0.00    -0.192 NA
ATOM     26  N   UNL     1      29.273   2.858  53.505  1.00  0.00    -0.192 NA
ENDBRANCH   2  19
TORSDOF 4
ENDMDL
MODEL 4
REMARK VINA RESULT:    -7.486      2.108      7.850
REMARK INTER + INTRA:          -9.524
REMARK INTER:                  -9.078
REMARK INTRA:                  -0.446
REMARK UNBOUND:                -0.507
REMARK SMILES Cc1cc(-c2ccccn2)[nH]c1C=C(N)C(C#N)=C(C#N)C#N
REMARK SMILES IDX 13 1 14 2 12 3 2 4 3 5 4 6 11 7 1 8 5 10 6 11 10 12 7 13
REMARK SMILES IDX 9 14 8 15 15 16 16 19 17 20 19 21 18 22 20 23 22 24 21 25
REMARK SMILES IDX 23 26
REMARK H PARENT 11 9 15 17 15 18
ROOT
ATOM      1  C   UNL     1      25.998   1.355  51.900  1.00  0.00    +0.053 C 
ATOM      2  C   UNL     1      26.519   1.072  53.114  1.00  0.00    +0.054 C 
ENDROOT
BRANCH   1   3
ATOM      3  C   UNL     1      24.985   2.323  51.683  1.00  0.00    +0.044 A 
ATOM      4  C   UNL     1      23.609   2.296  51.824  1.00  0.00    -0.025 A 
ATOM      5  C   UNL     1      23.138   3.600  51.490  1.00  0.00    +0.034 A 
ATOM      6  C   UNL     1      24.226   4.396  51.178  1.00  0.00    +0.065 A 
ATOM      7  N   UNL     1      25.340   3.603  51.334  1.00  0.00    -0.353 N 
ATOM      8  C   UNL     1      22.772   1.136  52.229  1.00  0.00    +0.046 C 
ATOM      9  H   UNL     1      26.283   3.945  51.180  1.00  0.00    +0.167 HD
BRANCH   6  10
ATOM     10  C   UNL     1      24.348   5.791  50.767  1.00  0.00    +0.086 A 
ATOM     11  C   UNL     1      23.331   6.721  50.939  1.00  0.00    +0.030 A 
ATOM     12  N   UNL     1      25.541   6.096  50.201  1.00  0.00    -0.255 NA
ATOM     13  C   UNL     1      23.546   8.029  50.511  1.00  0.00    +0.004 A 
ATOM     14  C   UNL     1      25.721   7.374  49.798  1.00  0.00    +0.112 A 
ATOM     15  C   UNL     1      24.763   8.364  49.929  1.00  0.00    +0.020 A 
ENDBRANCH   6  10
ENDBRANCH   1   3
BRANCH   2  16
ATOM     16  N   UNL     1      26.162   1.689  54.303  1.00  0.00    -0.398 N 
ATOM     17  H   UNL     1      25.255   1.401  54.667  1.00  0.00    +0.156 HD
ATOM     18  H   UNL     1      26.872   1.570  55.030  1.00  0.00    +0.156 HD
ENDBRANCH   2  16
BRANCH   2  19
ATOM     19  C   UNL     1      27.520   0.004  53.212  1.00  0.00    +0.103 C 
ATOM     20  C   UNL     1      27.130  -1.274  52.702  1.00  0.00    +0.103 C 
ATOM     21  C   UNL     1      28.741   0.203  53.758  1.00  0.00    +0.149 C 
ATOM     22  N   UNL     1      26.816  -2.312  52.292  1.00  0.00    -0.192 NA
ATOM     23  C   UNL     1      29.119   1.471  54.288  1.00  0.00    +0.112 C 
ATOM     24  C   UNL     1      29.700  -0.846  53.839  1.00  0.00    +0.112 C 
ATOM     25  N   UNL     1      29.437   2.491  54.739  1.00  0.00    -0.192 NA
ATOM     26  N   UNL     1      30.477  -1.704  53.904  1.00  0.00    -0.192 NA
ENDBRANCH   2  19
TORSDOF 4
ENDMDL
MODEL 5
REMARK VINA RESULT:    -7.474      2.570      4.475
REMARK INTER + INTRA:          -9.511
REMARK INTER:                  -9.527
REMARK INTRA:                   0.016
REMARK UNBOUND:                -0.507
REMARK SMILES Cc1cc(-c2ccccn2)[nH]c1C=C(N)C(C#N)=C(C#N)C#N
REMARK SMILES IDX 13 1 14 2 12 3 2 4 3 5 4 6 11 7 1 8 5 10 6 11 10 12 7 13
REMARK SMILES IDX 9 14 8 15 15 16 16 19 17 20 19 21 18 22 20 23 22 24 21 25
REMARK SMILES IDX 23 26
REMARK H PARENT 11 9 15 17 15 18
ROOT
ATOM      1  C   UNL     1      22.406   0.844  53.146  1.00  0.00    +0.053 C 
ATOM      2  C   UNL     1      21.639   0.553  52.072  1.00  0.00    +0.054 C 
ENDROOT
BRANCH   1   3
ATOM      3  C   UNL     1      23.796   1.112  53.073  1.00  0.00    +0.044 A 
ATOM      4  C   UNL     1      24.527   2.284  52.976  1.00  0.00    -0.025 A 
ATOM      5  C   UNL     1      25.903   1.909  52.980  1.00  0.00    +0.034 A 
ATOM      6  C   UNL     1      25.985   0.532  53.101  1.00  0.00    +0.065 A 
ATOM      7  N   UNL     1      24.689   0.076  53.187  1.00  0.00    -0.353 N 
ATOM      8  C   UNL     1      23.993   3.667  52.873  1.00  0.00    +0.046 C 
ATOM      9  H   UNL     1      24.460  -0.907  53.296  1.00  0.00    +0.167 HD
BRANCH   6  10
ATOM     10  C   UNL     1      27.113  -0.392  53.156  1.00  0.00    +0.086 A 
ATOM     11  C   UNL     1      28.377  -0.017  53.593  1.00  0.00    +0.030 A 
ATOM     12  N   UNL     1      26.817  -1.648  52.739  1.00  0.00    -0.255 NA
ATOM     13  C   UNL     1      29.388  -0.975  53.605  1.00  0.00    +0.004 A 
ATOM     14  C   UNL     1      27.818  -2.555  52.765  1.00  0.00    +0.112 A 
ATOM     15  C   UNL     1      29.106  -2.269  53.184  1.00  0.00    +0.020 A 
ENDBRANCH   6  10
ENDBRANCH   1   3
BRANCH   2  16
ATOM     16  N   UNL     1      22.087   0.495  50.762  1.00  0.00    -0.398 N 
ATOM     17  H   UNL     1      21.358   0.634  50.064  1.00  0.00    +0.156 HD
ATOM     18  H   UNL     1      22.853   1.150  50.584  1.00  0.00    +0.156 HD
ENDBRANCH   2  16
BRANCH   2  19
ATOM     19  C   UNL     1      20.224   0.235  52.290  1.00  0.00    +0.103 C 
ATOM     20  C   UNL     1      19.286   0.948  51.479  1.00  0.00    +0.103 C 
ATOM     21  C   UNL     1      19.818  -0.673  53.206  1.00  0.00    +0.149 C 
ATOM     22  N   UNL     1      18.523   1.527  50.826  1.00  0.00    -0.192 NA
ATOM     23  C   UNL     1      20.753  -1.365  54.030  1.00  0.00    +0.112 C 
ATOM     24  C   UNL     1      18.440  -0.970  53.398  1.00  0.00    +0.112 C 
ATOM     25  N   UNL     1      21.499  -1.925  54.720  1.00  0.00    -0.192 NA
ATOM     26  N   UNL     1      17.315  -1.208  53.551  1.00  0.00    -0.192 NA
ENDBRANCH   2  19
TORSDOF 4
ENDMDL
MODEL 6
REMARK VINA RESULT:    -7.450      2.453      7.516
REMARK INTER + INTRA:          -9.481
REMARK INTER:                  -9.049
REMARK INTRA:                  -0.433
REMARK UNBOUND:                -0.507
REMARK SMILES Cc1cc(-c2ccccn2)[nH]c1C=C(N)C(C#N)=C(C#N)C#N
REMARK SMILES IDX 13 1 14 2 12 3 2 4 3 5 4 6 11 7 1 8 5 10 6 11 10 12 7 13
REMARK SMILES IDX 9 14 8 15 15 16 16 19 17 20 19 21 18 22 20 23 22 24 21 25
REMARK SMILES IDX 23 26
REMARK H PARENT 11 9 15 17 15 18
ROOT
ATOM      1  C   UNL     1      25.050   0.997  53.463  1.00  0.00    +0.053 C 
ATOM      2  C   UNL     1      26.090   0.976  52.601  1.00  0.00    +0.054 C 
ENDROOT
BRANCH   1   3
ATOM      3  C   UNL     1      23.733   1.376  53.100  1.00  0.00    +0.044 A 
ATOM      4  C   UNL     1      23.195   2.545  52.589  1.00  0.00    -0.025 A 
ATOM      5  C   UNL     1      21.803   2.302  52.392  1.00  0.00    +0.034 A 
ATOM      6  C   UNL     1      21.526   0.997  52.761  1.00  0.00    +0.065 A 
ATOM      7  N   UNL     1      22.724   0.447  53.159  1.00  0.00    -0.353 N 
ATOM      8  C   UNL     1      23.915   3.815  52.309  1.00  0.00    +0.046 C 
ATOM      9  H   UNL     1      22.809  -0.514  53.471  1.00  0.00    +0.167 HD
BRANCH   6  10
ATOM     10  C   UNL     1      20.296   0.212  52.777  1.00  0.00    +0.086 A 
ATOM     11  C   UNL     1      20.088  -0.849  53.649  1.00  0.00    +0.030 A 
ATOM     12  N   UNL     1      19.378   0.609  51.861  1.00  0.00    -0.255 NA
ATOM     13  C   UNL     1      18.879  -1.537  53.582  1.00  0.00    +0.004 A 
ATOM     14  C   UNL     1      18.214  -0.077  51.822  1.00  0.00    +0.112 A 
ATOM     15  C   UNL     1      17.922  -1.146  52.653  1.00  0.00    +0.020 A 
ENDBRANCH   6  10
ENDBRANCH   1   3
BRANCH   2  16
ATOM     16  N   UNL     1      26.020   1.296  51.254  1.00  0.00    -0.398 N 
ATOM     17  H   UNL     1      26.639   2.054  50.972  1.00  0.00    +0.156 HD
ATOM     18  H   UNL     1      26.185   0.484  50.653  1.00  0.00    +0.156 HD
ENDBRANCH   2  16
BRANCH   2  19
ATOM     19  C   UNL     1      27.417   0.623  53.116  1.00  0.00    +0.103 C 
ATOM     20  C   UNL     1      28.186   1.696  53.666  1.00  0.00    +0.103 C 
ATOM     21  C   UNL     1      27.898  -0.641  53.074  1.00  0.00    +0.149 C 
ATOM     22  N   UNL     1      28.814   2.565  54.109  1.00  0.00    -0.192 NA
ATOM     23  C   UNL     1      27.140  -1.704  52.504  1.00  0.00    +0.112 C 
ATOM     24  C   UNL     1      29.187  -0.963  53.584  1.00  0.00    +0.112 C 
ATOM     25  N   UNL     1      26.544  -2.579  52.030  1.00  0.00    -0.192 NA
ATOM     26  N   UNL     1      30.239  -1.220  54.001  1.00  0.00    -0.192 NA
ENDBRANCH   2  19
TORSDOF 4
ENDMDL
MODEL 7
REMARK VINA RESULT:    -7.419      2.689      6.664
REMARK INTER + INTRA:          -9.444
REMARK INTER:                  -9.019
REMARK INTRA:                  -0.425
REMARK UNBOUND:                -0.507
REMARK SMILES Cc1cc(-c2ccccn2)[nH]c1C=C(N)C(C#N)=C(C#N)C#N
REMARK SMILES IDX 13 1 14 2 12 3 2 4 3 5 4 6 11 7 1 8 5 10 6 11 10 12 7 13
REMARK SMILES IDX 9 14 8 15 15 16 16 19 17 20 19 21 18 22 20 23 22 24 21 25
REMARK SMILES IDX 23 26
REMARK H PARENT 11 9 15 17 15 18
ROOT
ATOM      1  C   UNL     1      23.972   2.708  52.471  1.00  0.00    +0.053 C 
ATOM      2  C   UNL     1      23.375   1.538  52.155  1.00  0.00    +0.054 C 
ENDROOT
BRANCH   1   3
ATOM      3  C   UNL     1      24.065   3.810  51.584  1.00  0.00    +0.044 A 
ATOM      4  C   UNL     1      23.176   4.808  51.224  1.00  0.00    -0.025 A 
ATOM      5  C   UNL     1      23.865   5.660  50.311  1.00  0.00    +0.034 A 
ATOM      6  C   UNL     1      25.155   5.184  50.151  1.00  0.00    +0.065 A 
ATOM      7  N   UNL     1      25.259   4.076  50.961  1.00  0.00    -0.353 N 
ATOM      8  C   UNL     1      21.770   4.964  51.682  1.00  0.00    +0.046 C 
ATOM      9  H   UNL     1      26.114   3.535  51.044  1.00  0.00    +0.167 HD
BRANCH   6  10
ATOM     10  C   UNL     1      26.288   5.640  49.352  1.00  0.00    +0.086 A 
ATOM     11  C   UNL     1      27.340   4.809  48.989  1.00  0.00    +0.030 A 
ATOM     12  N   UNL     1      26.222   6.947  49.000  1.00  0.00    -0.255 NA
ATOM     13  C   UNL     1      28.376   5.342  48.226  1.00  0.00    +0.004 A 
ATOM     14  C   UNL     1      27.241   7.435  48.258  1.00  0.00    +0.112 A 
ATOM     15  C   UNL     1      28.328   6.679  47.852  1.00  0.00    +0.020 A 
ENDBRANCH   6  10
ENDBRANCH   1   3
BRANCH   2  16
ATOM     16  N   UNL     1      22.758   1.255  50.947  1.00  0.00    -0.398 N 
ATOM     17  H   UNL     1      23.317   1.486  50.128  1.00  0.00    +0.156 HD
ATOM     18  H   UNL     1      22.455   0.279  50.885  1.00  0.00    +0.156 HD
ENDBRANCH   2  16
BRANCH   2  19
ATOM     19  C   UNL     1      23.400   0.453  53.142  1.00  0.00    +0.103 C 
ATOM     20  C   UNL     1      24.694  -0.025  53.520  1.00  0.00    +0.103 C 
ATOM     21  C   UNL     1      22.271  -0.077  53.665  1.00  0.00    +0.149 C 
ATOM     22  N   UNL     1      25.741  -0.418  53.826  1.00  0.00    -0.192 NA
ATOM     23  C   UNL     1      20.982   0.385  53.269  1.00  0.00    +0.112 C 
ATOM     24  C   UNL     1      22.317  -1.126  54.625  1.00  0.00    +0.112 C 
ATOM     25  N   UNL     1      19.925   0.737  52.946  1.00  0.00    -0.192 NA
ATOM     26  N   UNL     1      22.361  -1.982  55.407  1.00  0.00    -0.192 NA
ENDBRANCH   2  19
TORSDOF 4
ENDMDL
MODEL 8
REMARK VINA RESULT:    -7.332      2.353      3.404
REMARK INTER + INTRA:          -9.339
REMARK INTER:                  -8.773
REMARK INTRA:                  -0.566
REMARK UNBOUND:                -0.507
REMARK SMILES Cc1cc(-c2ccccn2)[nH]c1C=C(N)C(C#N)=C(C#N)C#N
REMARK SMILES IDX 13 1 14 2 12 3 2 4 3 5 4 6 11 7 1 8 5 10 6 11 10 12 7 13
REMARK SMILES IDX 9 14 8 15 15 16 16 19 17 20 19 21 18 22 20 23 22 24 21 25
REMARK SMILES IDX 23 26
REMARK H PARENT 11 9 15 17 15 18
ROOT
ATOM      1  C   UNL     1      22.124   0.239  51.756  1.00  0.00    +0.053 C 
ATOM      2  C   UNL     1      21.664   1.498  51.580  1.00  0.00    +0.054 C 
ENDROOT
BRANCH   1   3
ATOM      3  C   UNL     1      22.957  -0.153  52.834  1.00  0.00    +0.044 A 
ATOM      4  C   UNL     1      22.694  -0.694  54.081  1.00  0.00    -0.025 A 
ATOM      5  C   UNL     1      23.957  -0.909  54.708  1.00  0.00    +0.034 A 
ATOM      6  C   UNL     1      24.956  -0.521  53.832  1.00  0.00    +0.065 A 
ATOM      7  N   UNL     1      24.321  -0.094  52.688  1.00  0.00    -0.353 N 
ATOM      8  C   UNL     1      21.359  -0.985  54.668  1.00  0.00    +0.046 C 
ATOM      9  H   UNL     1      24.825   0.237  51.872  1.00  0.00    +0.167 HD
BRANCH   6  10
ATOM     10  C   UNL     1      26.412  -0.512  53.931  1.00  0.00    +0.086 A 
ATOM     11  C   UNL     1      27.239  -1.080  52.971  1.00  0.00    +0.030 A 
ATOM     12  N   UNL     1      26.884   0.098  55.047  1.00  0.00    -0.255 NA
ATOM     13  C   UNL     1      28.617  -1.020  53.160  1.00  0.00    +0.004 A 
ATOM     14  C   UNL     1      28.226   0.142  55.201  1.00  0.00    +0.112 A 
ATOM     15  C   UNL     1      29.123  -0.398  54.295  1.00  0.00    +0.020 A 
ENDBRANCH   6  10
ENDBRANCH   1   3
BRANCH   2  16
ATOM     16  N   UNL     1      21.918   2.567  52.425  1.00  0.00    -0.398 N 
ATOM     17  H   UNL     1      22.700   2.422  53.060  1.00  0.00    +0.156 HD
ATOM     18  H   UNL     1      22.057   3.442  51.912  1.00  0.00    +0.156 HD
ENDBRANCH   2  16
BRANCH   2  19
ATOM     19  C   UNL     1      20.859   1.787  50.389  1.00  0.00    +0.103 C 
ATOM     20  C   UNL     1      19.499   1.346  50.425  1.00  0.00    +0.103 C 
ATOM     21  C   UNL     1      21.365   2.428  49.311  1.00  0.00    +0.149 C 
ATOM     22  N   UNL     1      18.397   0.986  50.449  1.00  0.00    -0.192 NA
ATOM     23  C   UNL     1      22.727   2.846  49.268  1.00  0.00    +0.112 C 
ATOM     24  C   UNL     1      20.565   2.704  48.167  1.00  0.00    +0.112 C 
ATOM     25  N   UNL     1      23.836   3.179  49.209  1.00  0.00    -0.192 NA
ATOM     26  N   UNL     1      19.909   2.925  47.236  1.00  0.00    -0.192 NA
ENDBRANCH   2  19
TORSDOF 4
ENDMDL
MODEL 9
REMARK VINA RESULT:    -7.291      3.283      7.229
REMARK INTER + INTRA:          -9.290
REMARK INTER:                  -8.684
REMARK INTRA:                  -0.607
REMARK UNBOUND:                -0.507
REMARK SMILES Cc1cc(-c2ccccn2)[nH]c1C=C(N)C(C#N)=C(C#N)C#N
REMARK SMILES IDX 13 1 14 2 12 3 2 4 3 5 4 6 11 7 1 8 5 10 6 11 10 12 7 13
REMARK SMILES IDX 9 14 8 15 15 16 16 19 17 20 19 21 18 22 20 23 22 24 21 25
REMARK SMILES IDX 23 26
REMARK H PARENT 11 9 15 17 15 18
ROOT
ATOM      1  C   UNL     1      25.168   2.598  51.016  1.00  0.00    +0.053 C 
ATOM      2  C   UNL     1      24.710   2.686  52.284  1.00  0.00    +0.054 C 
ENDROOT
BRANCH   1   3
ATOM      3  C   UNL     1      25.271   3.707  50.137  1.00  0.00    +0.044 A 
ATOM      4  C   UNL     1      24.331   4.460  49.456  1.00  0.00    -0.025 A 
ATOM      5  C   UNL     1      25.049   5.474  48.755  1.00  0.00    +0.034 A 
ATOM      6  C   UNL     1      26.396   5.335  49.038  1.00  0.00    +0.065 A 
ATOM      7  N   UNL     1      26.500   4.272  49.906  1.00  0.00    -0.353 N 
ATOM      8  C   UNL     1      22.858   4.253  49.438  1.00  0.00    +0.046 C 
ATOM      9  H   UNL     1      27.387   3.959  50.286  1.00  0.00    +0.167 HD
BRANCH   6  10
ATOM     10  C   UNL     1      27.580   6.074  48.609  1.00  0.00    +0.086 A 
ATOM     11  C   UNL     1      28.757   5.451  48.215  1.00  0.00    +0.030 A 
ATOM     12  N   UNL     1      27.427   7.421  48.633  1.00  0.00    -0.255 NA
ATOM     13  C   UNL     1      29.832   6.247  47.825  1.00  0.00    +0.004 A 
ATOM     14  C   UNL     1      28.486   8.165  48.246  1.00  0.00    +0.112 A 
ATOM     15  C   UNL     1      29.697   7.630  47.839  1.00  0.00    +0.020 A 
ENDBRANCH   6  10
ENDBRANCH   1   3
BRANCH   2  16
ATOM     16  N   UNL     1      24.298   3.853  52.908  1.00  0.00    -0.398 N 
ATOM     17  H   UNL     1      23.419   3.769  53.415  1.00  0.00    +0.156 HD
ATOM     18  H   UNL     1      25.015   4.231  53.534  1.00  0.00    +0.156 HD
ENDBRANCH   2  16
BRANCH   2  19
ATOM     19  C   UNL     1      24.596   1.454  53.071  1.00  0.00    +0.103 C 
ATOM     20  C   UNL     1      23.331   0.788  53.021  1.00  0.00    +0.103 C 
ATOM     21  C   UNL     1      25.619   0.969  53.811  1.00  0.00    +0.149 C 
ATOM     22  N   UNL     1      22.305   0.248  52.985  1.00  0.00    -0.192 NA
ATOM     23  C   UNL     1      26.871   1.647  53.879  1.00  0.00    +0.112 C 
ATOM     24  C   UNL     1      25.489  -0.231  54.565  1.00  0.00    +0.112 C 
ATOM     25  N   UNL     1      27.891   2.194  53.959  1.00  0.00    -0.192 NA
ATOM     26  N   UNL     1      25.377  -1.210  55.177  1.00  0.00    -0.192 NA
ENDBRANCH   2  19
TORSDOF 4
ENDMDL
