REMARK SMILES COc1[nH]c(C=C(N)C(C#N)=C(C#N)C#N)cc1C
REMARK SMILES IDX 3 1 4 2 5 3 17 4 18 5 19 6 2 8 1 9 6 10 7 11 8 12 9 15 10 16
REMARK SMILES IDX 12 17 11 18 13 19 15 20 14 21 16 22
REMARK H PARENT 4 7 8 13 8 14
ROOT
ATOM      1  C   UNL     1       1.967   0.172   0.562  1.00  0.00    +0.193 A 
ATOM      2  N   UNL     1       1.169  -0.777  -0.033  1.00  0.00    -0.326 N 
ATOM      3  C   UNL     1      -0.003  -0.915   0.671  1.00  0.00    +0.043 A 
ATOM      4  C   UNL     1       0.087  -0.113   1.787  1.00  0.00    +0.035 A 
ATOM      5  C   UNL     1       1.326   0.583   1.720  1.00  0.00    +0.011 A 
ATOM      6  C   UNL     1       1.840   1.573   2.701  1.00  0.00    +0.050 C 
ATOM      7  H   UNL     1       1.401  -1.281  -0.877  1.00  0.00    +0.170 HD
ENDROOT
BRANCH   1   8
ATOM      8  O   UNL     1       3.152   0.569   0.089  1.00  0.00    -0.482 OA
ATOM      9  C   UNL     1       3.490   0.208  -1.244  1.00  0.00    +0.280 C 
ENDBRANCH   1   8
BRANCH   3  10
ATOM     10  C   UNL     1      -0.996  -1.802   0.194  1.00  0.00    +0.053 C 
ATOM     11  C   UNL     1      -1.842  -1.480  -0.809  1.00  0.00    +0.054 C 
BRANCH  11  12
ATOM     12  N   UNL     1      -2.820  -2.358  -1.240  1.00  0.00    -0.398 N 
ATOM     13  H   UNL     1      -3.676  -1.931  -1.589  1.00  0.00    +0.156 HD
ATOM     14  H   UNL     1      -3.022  -3.113  -0.586  1.00  0.00    +0.156 HD
ENDBRANCH  11  12
BRANCH  11  15
ATOM     15  C   UNL     1      -1.776  -0.175  -1.483  1.00  0.00    +0.103 C 
ATOM     16  C   UNL     1      -0.911  -0.115  -2.621  1.00  0.00    +0.103 C 
ATOM     17  C   UNL     1      -2.423   0.922  -1.030  1.00  0.00    +0.149 C 
ATOM     18  N   UNL     1      -0.176  -0.069  -3.518  1.00  0.00    -0.192 NA
ATOM     19  C   UNL     1      -3.266   0.854   0.115  1.00  0.00    +0.112 C 
ATOM     20  C   UNL     1      -2.306   2.181  -1.683  1.00  0.00    +0.112 C 
ATOM     21  N   UNL     1      -3.970   0.777   1.035  1.00  0.00    -0.192 NA
ATOM     22  N   UNL     1      -2.223   3.203  -2.225  1.00  0.00    -0.192 NA
ENDBRANCH  11  15
ENDBRANCH   3  10
TORSDOF 4
