REMARK SMILES Cc1cc(C=C(N)C(C#N)=C(C#N)C#N)[nH]c1-c1ccc(F)c(Cl)c1
REMARK SMILES IDX 1 1 2 2 3 3 4 4 16 5 17 6 18 8 19 9 25 10 20 11 23 12 21 13
REMARK SMILES IDX 24 14 22 15 5 16 6 17 7 18 8 21 9 22 11 23 10 24 12 25 14 26
REMARK SMILES IDX 13 27 15 28
REMARK H PARENT 16 7 7 19 7 20
ROOT
ATOM      1  C   UNL     1      -1.903  -2.164   1.965  1.00  0.00    +0.047 C 
ATOM      2  C   UNL     1      -1.106  -1.126   1.256  1.00  0.00    -0.025 A 
ATOM      3  C   UNL     1       0.292  -0.905   1.415  1.00  0.00    +0.031 A 
ATOM      4  C   UNL     1       0.664   0.125   0.577  1.00  0.00    +0.041 A 
ATOM      5  N   UNL     1      -0.472   0.552  -0.064  1.00  0.00    -0.355 N 
ATOM      6  C   UNL     1      -1.560  -0.203   0.322  1.00  0.00    +0.049 A 
ATOM      7  H   UNL     1      -0.516   1.310  -0.733  1.00  0.00    +0.167 HD
ENDROOT
BRANCH   6   8
ATOM      8  C   UNL     1      -2.897   0.043  -0.216  1.00  0.00    -0.000 A 
ATOM      9  C   UNL     1      -3.108   0.085  -1.602  1.00  0.00    +0.013 A 
ATOM     10  C   UNL     1      -3.982   0.243   0.649  1.00  0.00    +0.034 A 
ATOM     11  C   UNL     1      -4.385   0.321  -2.116  1.00  0.00    +0.041 A 
ATOM     12  C   UNL     1      -5.257   0.478   0.132  1.00  0.00    +0.077 A 
ATOM     13  C   UNL     1      -5.452   0.517  -1.246  1.00  0.00    +0.141 A 
ATOM     14 Cl   UNL     1      -6.575   0.722   1.213  1.00  0.00    -0.081 Cl
ATOM     15  F   UNL     1      -6.670   0.742  -1.761  1.00  0.00    -0.205 F 
ENDBRANCH   6   8
BRANCH   4  16
ATOM     16  C   UNL     1       1.880   0.796   0.297  1.00  0.00    +0.053 C 
ATOM     17  C   UNL     1       3.045   0.154   0.055  1.00  0.00    +0.054 C 
BRANCH  17  18
ATOM     18  N   UNL     1       3.177  -1.226  -0.062  1.00  0.00    -0.398 N 
ATOM     19  H   UNL     1       3.692  -1.637   0.720  1.00  0.00    +0.156 HD
ATOM     20  H   UNL     1       2.262  -1.683  -0.061  1.00  0.00    +0.156 HD
ENDBRANCH  17  18
BRANCH  17  21
ATOM     21  C   UNL     1       4.258   0.952  -0.220  1.00  0.00    +0.103 C 
ATOM     22  C   UNL     1       4.155   1.896  -1.295  1.00  0.00    +0.103 C 
ATOM     23  C   UNL     1       5.418   0.821   0.463  1.00  0.00    +0.149 C 
ATOM     24  N   UNL     1       4.055   2.679  -2.144  1.00  0.00    -0.192 NA
ATOM     25  C   UNL     1       6.566   1.603   0.150  1.00  0.00    +0.112 C 
ATOM     26  C   UNL     1       5.537  -0.095   1.544  1.00  0.00    +0.112 C 
ATOM     27  N   UNL     1       7.499   2.245  -0.099  1.00  0.00    -0.192 NA
ATOM     28  N   UNL     1       5.587  -0.866   2.410  1.00  0.00    -0.192 NA
ENDBRANCH  17  21
ENDBRANCH   4  16
TORSDOF 4
