MODEL 1
REMARK VINA RESULT:    -8.800      0.000      0.000
REMARK INTER + INTRA:         -10.263
REMARK INTER:                  -9.829
REMARK INTRA:                  -0.434
REMARK UNBOUND:                -0.434
REMARK SMILES Cc1cccc(C=C2C(=O)N(C)c3ncnc(N4CCOCC4)c32)c1
REMARK SMILES IDX 7 1 8 2 9 3 10 4 11 5 12 6 13 7 14 8 15 9 16 10 17 11 24 12
REMARK SMILES IDX 6 13 2 14 3 15 25 16 4 17 5 18 1 19 18 20 19 21 23 22 20 23
REMARK SMILES IDX 22 24 21 25
REMARK H PARENT
ROOT
ATOM      1  C   UNL     1      25.758   0.940  52.343  1.00  0.00    +0.023 C 
ATOM      2  C   UNL     1      24.522   0.606  52.748  1.00  0.00    +0.055 C 
ATOM      3  C   UNL     1      24.157  -0.335  53.870  1.00  0.00    +0.260 C 
ATOM      4  O   UNL     1      24.904  -0.897  54.647  1.00  0.00    -0.269 OA
ATOM      5  N   UNL     1      22.774  -0.419  53.820  1.00  0.00    -0.295 N 
ATOM      6  C   UNL     1      21.952  -1.208  54.694  1.00  0.00    +0.155 C 
ATOM      7  C   UNL     1      22.243   0.394  52.812  1.00  0.00    +0.148 A 
ATOM      8  N   UNL     1      20.938   0.505  52.551  1.00  0.00    -0.218 NA
ATOM      9  C   UNL     1      20.669   1.347  51.549  1.00  0.00    +0.226 A 
ATOM     10  N   UNL     1      21.565   2.065  50.842  1.00  0.00    -0.219 NA
ATOM     11  C   UNL     1      22.874   1.928  51.154  1.00  0.00    +0.142 A 
ATOM     12  C   UNL     1      23.260   1.060  52.151  1.00  0.00    +0.073 A 
ENDROOT
BRANCH   1  13
ATOM     13  C   UNL     1      27.025   0.475  52.914  1.00  0.00    -0.025 A 
ATOM     14  C   UNL     1      28.686  -1.271  53.279  1.00  0.00    -0.051 A 
ATOM     15  C   UNL     1      29.493  -0.347  53.952  1.00  0.00    +0.003 A 
ATOM     16  C   UNL     1      27.448  -0.852  52.769  1.00  0.00    +0.011 A 
ATOM     17  C   UNL     1      29.083   0.978  54.091  1.00  0.00    +0.001 A 
ATOM     18  C   UNL     1      27.857   1.390  53.569  1.00  0.00    +0.008 A 
ATOM     19  C   UNL     1      29.103  -2.707  53.165  1.00  0.00    +0.044 C 
ENDBRANCH   1  13
BRANCH  11  20
ATOM     20  N   UNL     1      23.820   2.726  50.476  1.00  0.00    -0.351 N 
ATOM     21  C   UNL     1      23.996   4.009  51.208  1.00  0.00    +0.146 C 
ATOM     22  C   UNL     1      23.494   2.928  49.041  1.00  0.00    +0.146 C 
ATOM     23  C   UNL     1      24.558   5.085  50.267  1.00  0.00    +0.181 C 
ATOM     24  C   UNL     1      22.838   4.294  48.793  1.00  0.00    +0.181 C 
ATOM     25  O   UNL     1      23.675   5.398  49.178  1.00  0.00    -0.378 OA
ENDBRANCH  11  20
TORSDOF 2
ENDMDL
MODEL 2
REMARK VINA RESULT:    -8.547      2.085      6.167
REMARK INTER + INTRA:          -9.981
REMARK INTER:                  -9.300
REMARK INTRA:                  -0.680
REMARK UNBOUND:                -0.434
REMARK SMILES Cc1cccc(C=C2C(=O)N(C)c3ncnc(N4CCOCC4)c32)c1
REMARK SMILES IDX 7 1 8 2 9 3 10 4 11 5 12 6 13 7 14 8 15 9 16 10 17 11 24 12
REMARK SMILES IDX 6 13 2 14 3 15 25 16 4 17 5 18 1 19 18 20 19 21 23 22 20 23
REMARK SMILES IDX 22 24 21 25
REMARK H PARENT
ROOT
ATOM      1  C   UNL     1      23.759   1.811  51.643  1.00  0.00    +0.023 C 
ATOM      2  C   UNL     1      22.916   1.059  52.369  1.00  0.00    +0.055 C 
ATOM      3  C   UNL     1      21.410   1.038  52.278  1.00  0.00    +0.260 C 
ATOM      4  O   UNL     1      20.700   1.635  51.493  1.00  0.00    -0.269 OA
ATOM      5  N   UNL     1      21.011   0.183  53.294  1.00  0.00    -0.295 N 
ATOM      6  C   UNL     1      19.653  -0.158  53.616  1.00  0.00    +0.155 C 
ATOM      7  C   UNL     1      22.107  -0.352  53.980  1.00  0.00    +0.148 A 
ATOM      8  N   UNL     1      22.006  -1.208  55.000  1.00  0.00    -0.218 NA
ATOM      9  C   UNL     1      23.189  -1.590  55.490  1.00  0.00    +0.226 A 
ATOM     10  N   UNL     1      24.403  -1.211  55.041  1.00  0.00    -0.219 NA
ATOM     11  C   UNL     1      24.453  -0.353  53.997  1.00  0.00    +0.142 A 
ATOM     12  C   UNL     1      23.288   0.125  53.438  1.00  0.00    +0.073 A 
ENDROOT
BRANCH   1  13
ATOM     13  C   UNL     1      23.400   2.765  50.589  1.00  0.00    -0.025 A 
ATOM     14  C   UNL     1      22.633   3.254  48.328  1.00  0.00    -0.051 A 
ATOM     15  C   UNL     1      22.644   4.621  48.632  1.00  0.00    +0.003 A 
ATOM     16  C   UNL     1      23.020   2.333  49.312  1.00  0.00    +0.011 A 
ATOM     17  C   UNL     1      23.012   5.057  49.905  1.00  0.00    +0.001 A 
ATOM     18  C   UNL     1      23.382   4.133  50.882  1.00  0.00    +0.008 A 
ATOM     19  C   UNL     1      22.281   2.784  46.949  1.00  0.00    +0.044 C 
ENDBRANCH   1  13
BRANCH  11  20
ATOM     20  N   UNL     1      25.713  -0.003  53.465  1.00  0.00    -0.351 N 
ATOM     21  C   UNL     1      26.451  -1.241  53.098  1.00  0.00    +0.146 C 
ATOM     22  C   UNL     1      26.498   0.886  54.359  1.00  0.00    +0.146 C 
ATOM     23  C   UNL     1      27.961  -0.962  53.042  1.00  0.00    +0.181 C 
ATOM     24  C   UNL     1      27.556   0.105  55.153  1.00  0.00    +0.181 C 
ATOM     25  O   UNL     1      28.508  -0.568  54.310  1.00  0.00    -0.378 OA
ENDBRANCH  11  20
TORSDOF 2
ENDMDL
MODEL 3
REMARK VINA RESULT:    -8.258      1.777      4.328
REMARK INTER + INTRA:          -9.657
REMARK INTER:                  -9.422
REMARK INTRA:                  -0.235
REMARK UNBOUND:                -0.434
REMARK SMILES Cc1cccc(C=C2C(=O)N(C)c3ncnc(N4CCOCC4)c32)c1
REMARK SMILES IDX 7 1 8 2 9 3 10 4 11 5 12 6 13 7 14 8 15 9 16 10 17 11 24 12
REMARK SMILES IDX 6 13 2 14 3 15 25 16 4 17 5 18 1 19 18 20 19 21 23 22 20 23
REMARK SMILES IDX 22 24 21 25
REMARK H PARENT
ROOT
ATOM      1  C   UNL     1      25.384   0.863  53.209  1.00  0.00    +0.023 C 
ATOM      2  C   UNL     1      24.887   1.622  52.218  1.00  0.00    +0.055 C 
ATOM      3  C   UNL     1      25.671   2.352  51.155  1.00  0.00    +0.260 C 
ATOM      4  O   UNL     1      26.871   2.328  50.961  1.00  0.00    -0.269 OA
ATOM      5  N   UNL     1      24.716   3.063  50.444  1.00  0.00    -0.295 N 
ATOM      6  C   UNL     1      24.976   3.925  49.324  1.00  0.00    +0.155 C 
ATOM      7  C   UNL     1      23.426   2.824  50.930  1.00  0.00    +0.148 A 
ATOM      8  N   UNL     1      22.321   3.378  50.423  1.00  0.00    -0.218 NA
ATOM      9  C   UNL     1      21.203   2.993  51.045  1.00  0.00    +0.226 A 
ATOM     10  N   UNL     1      21.115   2.123  52.072  1.00  0.00    -0.219 NA
ATOM     11  C   UNL     1      22.261   1.579  52.541  1.00  0.00    +0.142 A 
ATOM     12  C   UNL     1      23.472   1.934  51.988  1.00  0.00    +0.073 A 
ENDROOT
BRANCH   1  13
ATOM     13  C   UNL     1      26.795   0.564  53.464  1.00  0.00    -0.025 A 
ATOM     14  C   UNL     1      28.695  -0.962  53.405  1.00  0.00    -0.051 A 
ATOM     15  C   UNL     1      29.517   0.061  53.891  1.00  0.00    +0.003 A 
ATOM     16  C   UNL     1      27.332  -0.704  53.201  1.00  0.00    +0.011 A 
ATOM     17  C   UNL     1      28.992   1.327  54.144  1.00  0.00    +0.001 A 
ATOM     18  C   UNL     1      27.638   1.580  53.926  1.00  0.00    +0.008 A 
ATOM     19  C   UNL     1      29.246  -2.337  53.173  1.00  0.00    +0.044 C 
ENDBRANCH   1  13
BRANCH  11  20
ATOM     20  N   UNL     1      22.183   0.611  53.565  1.00  0.00    -0.351 N 
ATOM     21  C   UNL     1      22.411  -0.739  52.982  1.00  0.00    +0.146 C 
ATOM     22  C   UNL     1      20.925   0.689  54.350  1.00  0.00    +0.146 C 
ATOM     23  C   UNL     1      21.813  -1.820  53.897  1.00  0.00    +0.181 C 
ATOM     24  C   UNL     1      19.904  -0.366  53.896  1.00  0.00    +0.181 C 
ATOM     25  O   UNL     1      20.388  -1.713  54.039  1.00  0.00    -0.378 OA
ENDBRANCH  11  20
TORSDOF 2
ENDMDL
MODEL 4
REMARK VINA RESULT:    -8.241      2.000      6.209
REMARK INTER + INTRA:          -9.639
REMARK INTER:                  -9.270
REMARK INTRA:                  -0.369
REMARK UNBOUND:                -0.434
REMARK SMILES Cc1cccc(C=C2C(=O)N(C)c3ncnc(N4CCOCC4)c32)c1
REMARK SMILES IDX 7 1 8 2 9 3 10 4 11 5 12 6 13 7 14 8 15 9 16 10 17 11 24 12
REMARK SMILES IDX 6 13 2 14 3 15 25 16 4 17 5 18 1 19 18 20 19 21 23 22 20 23
REMARK SMILES IDX 22 24 21 25
REMARK H PARENT
ROOT
ATOM      1  C   UNL     1      25.653   3.244  50.796  1.00  0.00    +0.023 C 
ATOM      2  C   UNL     1      24.456   2.637  50.816  1.00  0.00    +0.055 C 
ATOM      3  C   UNL     1      23.223   3.036  50.042  1.00  0.00    +0.260 C 
ATOM      4  O   UNL     1      23.111   3.923  49.219  1.00  0.00    -0.269 OA
ATOM      5  N   UNL     1      22.238   2.165  50.482  1.00  0.00    -0.295 N 
ATOM      6  C   UNL     1      20.872   2.153  50.037  1.00  0.00    +0.155 C 
ATOM      7  C   UNL     1      22.736   1.250  51.416  1.00  0.00    +0.148 A 
ATOM      8  N   UNL     1      22.001   0.297  51.995  1.00  0.00    -0.218 NA
ATOM      9  C   UNL     1      22.696  -0.464  52.846  1.00  0.00    +0.226 A 
ATOM     10  N   UNL     1      24.011  -0.356  53.128  1.00  0.00    -0.219 NA
ATOM     11  C   UNL     1      24.715   0.617  52.505  1.00  0.00    +0.142 A 
ATOM     12  C   UNL     1      24.085   1.475  51.631  1.00  0.00    +0.073 A 
ENDROOT
BRANCH   1  13
ATOM     13  C   UNL     1      26.030   4.419  50.005  1.00  0.00    -0.025 A 
ATOM     14  C   UNL     1      25.799   6.782  49.456  1.00  0.00    -0.051 A 
ATOM     15  C   UNL     1      26.839   6.657  48.528  1.00  0.00    +0.003 A 
ATOM     16  C   UNL     1      25.395   5.655  50.185  1.00  0.00    +0.011 A 
ATOM     17  C   UNL     1      27.483   5.433  48.351  1.00  0.00    +0.001 A 
ATOM     18  C   UNL     1      27.084   4.319  49.091  1.00  0.00    +0.008 A 
ATOM     19  C   UNL     1      25.075   8.086  49.618  1.00  0.00    +0.044 C 
ENDBRANCH   1  13
BRANCH  11  20
ATOM     20  N   UNL     1      26.106   0.698  52.730  1.00  0.00    -0.351 N 
ATOM     21  C   UNL     1      26.713  -0.647  52.541  1.00  0.00    +0.146 C 
ATOM     22  C   UNL     1      26.452   1.301  54.042  1.00  0.00    +0.146 C 
ATOM     23  C   UNL     1      28.057  -0.732  53.281  1.00  0.00    +0.181 C 
ATOM     24  C   UNL     1      26.804   0.231  55.086  1.00  0.00    +0.181 C 
ATOM     25  O   UNL     1      27.928  -0.580  54.703  1.00  0.00    -0.378 OA
ENDBRANCH  11  20
TORSDOF 2
ENDMDL
MODEL 5
REMARK VINA RESULT:    -7.847      2.379      4.392
REMARK INTER + INTRA:          -9.199
REMARK INTER:                  -8.407
REMARK INTRA:                  -0.791
REMARK UNBOUND:                -0.434
REMARK SMILES Cc1cccc(C=C2C(=O)N(C)c3ncnc(N4CCOCC4)c32)c1
REMARK SMILES IDX 7 1 8 2 9 3 10 4 11 5 12 6 13 7 14 8 15 9 16 10 17 11 24 12
REMARK SMILES IDX 6 13 2 14 3 15 25 16 4 17 5 18 1 19 18 20 19 21 23 22 20 23
REMARK SMILES IDX 22 24 21 25
REMARK H PARENT
ROOT
ATOM      1  C   UNL     1      24.680   1.474  51.963  1.00  0.00    +0.023 C 
ATOM      2  C   UNL     1      24.855   2.432  51.037  1.00  0.00    +0.055 C 
ATOM      3  C   UNL     1      26.163   3.047  50.603  1.00  0.00    +0.260 C 
ATOM      4  O   UNL     1      27.286   2.742  50.955  1.00  0.00    -0.269 OA
ATOM      5  N   UNL     1      25.800   4.044  49.712  1.00  0.00    -0.295 N 
ATOM      6  C   UNL     1      26.707   4.924  49.026  1.00  0.00    +0.155 C 
ATOM      7  C   UNL     1      24.415   4.089  49.521  1.00  0.00    +0.148 A 
ATOM      8  N   UNL     1      23.799   4.952  48.708  1.00  0.00    -0.218 NA
ATOM      9  C   UNL     1      22.472   4.800  48.681  1.00  0.00    +0.226 A 
ATOM     10  N   UNL     1      21.757   3.879  49.360  1.00  0.00    -0.219 NA
ATOM     11  C   UNL     1      22.428   3.018  50.159  1.00  0.00    +0.142 A 
ATOM     12  C   UNL     1      23.797   3.112  50.281  1.00  0.00    +0.073 A 
ENDROOT
BRANCH   1  13
ATOM     13  C   UNL     1      25.725   0.805  52.743  1.00  0.00    -0.025 A 
ATOM     14  C   UNL     1      27.294  -1.031  53.069  1.00  0.00    -0.051 A 
ATOM     15  C   UNL     1      27.776  -0.399  54.220  1.00  0.00    +0.003 A 
ATOM     16  C   UNL     1      26.261  -0.425  52.339  1.00  0.00    +0.011 A 
ATOM     17  C   UNL     1      27.254   0.830  54.622  1.00  0.00    +0.001 A 
ATOM     18  C   UNL     1      26.236   1.433  53.883  1.00  0.00    +0.008 A 
ATOM     19  C   UNL     1      27.822  -2.373  52.658  1.00  0.00    +0.044 C 
ENDBRANCH   1  13
BRANCH  11  20
ATOM     20  N   UNL     1      21.706   2.000  50.818  1.00  0.00    -0.351 N 
ATOM     21  C   UNL     1      20.645   1.485  49.912  1.00  0.00    +0.146 C 
ATOM     22  C   UNL     1      21.173   2.423  52.139  1.00  0.00    +0.146 C 
ATOM     23  C   UNL     1      19.532   0.809  50.727  1.00  0.00    +0.181 C 
ATOM     24  C   UNL     1      19.686   2.800  52.058  1.00  0.00    +0.181 C 
ATOM     25  O   UNL     1      18.855   1.714  51.613  1.00  0.00    -0.378 OA
ENDBRANCH  11  20
TORSDOF 2
ENDMDL
MODEL 6
REMARK VINA RESULT:    -7.836      2.427      5.352
REMARK INTER + INTRA:          -9.186
REMARK INTER:                  -9.048
REMARK INTRA:                  -0.138
REMARK UNBOUND:                -0.434
REMARK SMILES Cc1cccc(C=C2C(=O)N(C)c3ncnc(N4CCOCC4)c32)c1
REMARK SMILES IDX 7 1 8 2 9 3 10 4 11 5 12 6 13 7 14 8 15 9 16 10 17 11 24 12
REMARK SMILES IDX 6 13 2 14 3 15 25 16 4 17 5 18 1 19 18 20 19 21 23 22 20 23
REMARK SMILES IDX 22 24 21 25
REMARK H PARENT
ROOT
ATOM      1  C   UNL     1      24.533   2.940  50.841  1.00  0.00    +0.023 C 
ATOM      2  C   UNL     1      24.924   2.092  51.805  1.00  0.00    +0.055 C 
ATOM      3  C   UNL     1      26.320   1.922  52.353  1.00  0.00    +0.260 C 
ATOM      4  O   UNL     1      27.315   2.562  52.075  1.00  0.00    -0.269 OA
ATOM      5  N   UNL     1      26.218   0.866  53.246  1.00  0.00    -0.295 N 
ATOM      6  C   UNL     1      27.297   0.321  54.023  1.00  0.00    +0.155 C 
ATOM      7  C   UNL     1      24.906   0.389  53.335  1.00  0.00    +0.148 A 
ATOM      8  N   UNL     1      24.529  -0.619  54.126  1.00  0.00    -0.218 NA
ATOM      9  C   UNL     1      23.223  -0.891  54.051  1.00  0.00    +0.226 A 
ATOM     10  N   UNL     1      22.312  -0.246  53.294  1.00  0.00    -0.219 NA
ATOM     11  C   UNL     1      22.741   0.777  52.520  1.00  0.00    +0.142 A 
ATOM     12  C   UNL     1      24.076   1.118  52.502  1.00  0.00    +0.073 A 
ENDROOT
BRANCH   1  13
ATOM     13  C   UNL     1      25.374   3.900  50.119  1.00  0.00    -0.025 A 
ATOM     14  C   UNL     1      25.959   6.187  49.514  1.00  0.00    -0.051 A 
ATOM     15  C   UNL     1      27.055   5.703  48.792  1.00  0.00    +0.003 A 
ATOM     16  C   UNL     1      25.118   5.276  50.170  1.00  0.00    +0.011 A 
ATOM     17  C   UNL     1      27.322   4.335  48.746  1.00  0.00    +0.001 A 
ATOM     18  C   UNL     1      26.488   3.437  49.412  1.00  0.00    +0.008 A 
ATOM     19  C   UNL     1      25.643   7.653  49.530  1.00  0.00    +0.044 C 
ENDBRANCH   1  13
BRANCH  11  20
ATOM     20  N   UNL     1      21.792   1.512  51.779  1.00  0.00    -0.351 N 
ATOM     21  C   UNL     1      20.886   2.229  52.716  1.00  0.00    +0.146 C 
ATOM     22  C   UNL     1      21.053   0.685  50.791  1.00  0.00    +0.146 C 
ATOM     23  C   UNL     1      19.562   2.574  52.015  1.00  0.00    +0.181 C 
ATOM     24  C   UNL     1      19.665   0.282  51.311  1.00  0.00    +0.181 C 
ATOM     25  O   UNL     1      18.824   1.412  51.603  1.00  0.00    -0.378 OA
ENDBRANCH  11  20
TORSDOF 2
ENDMDL
MODEL 7
REMARK VINA RESULT:    -7.392      2.615      4.064
REMARK INTER + INTRA:          -8.690
REMARK INTER:                  -8.013
REMARK INTRA:                  -0.678
REMARK UNBOUND:                -0.434
REMARK SMILES Cc1cccc(C=C2C(=O)N(C)c3ncnc(N4CCOCC4)c32)c1
REMARK SMILES IDX 7 1 8 2 9 3 10 4 11 5 12 6 13 7 14 8 15 9 16 10 17 11 24 12
REMARK SMILES IDX 6 13 2 14 3 15 25 16 4 17 5 18 1 19 18 20 19 21 23 22 20 23
REMARK SMILES IDX 22 24 21 25
REMARK H PARENT
ROOT
ATOM      1  C   UNL     1      25.344   2.862  51.288  1.00  0.00    +0.023 C 
ATOM      2  C   UNL     1      24.211   2.922  50.570  1.00  0.00    +0.055 C 
ATOM      3  C   UNL     1      23.075   1.928  50.582  1.00  0.00    +0.260 C 
ATOM      4  O   UNL     1      22.950   0.945  51.285  1.00  0.00    -0.269 OA
ATOM      5  N   UNL     1      22.203   2.384  49.606  1.00  0.00    -0.295 N 
ATOM      6  C   UNL     1      20.962   1.761  49.235  1.00  0.00    +0.155 C 
ATOM      7  C   UNL     1      22.658   3.569  49.017  1.00  0.00    +0.148 A 
ATOM      8  N   UNL     1      22.006   4.224  48.054  1.00  0.00    -0.218 NA
ATOM      9  C   UNL     1      22.630   5.337  47.655  1.00  0.00    +0.226 A 
ATOM     10  N   UNL     1      23.789   5.824  48.141  1.00  0.00    -0.219 NA
ATOM     11  C   UNL     1      24.405   5.131  49.126  1.00  0.00    +0.142 A 
ATOM     12  C   UNL     1      23.859   3.953  49.588  1.00  0.00    +0.073 A 
ENDROOT
BRANCH   1  13
ATOM     13  C   UNL     1      25.719   1.825  52.254  1.00  0.00    -0.025 A 
ATOM     14  C   UNL     1      26.545  -0.409  52.769  1.00  0.00    -0.051 A 
ATOM     15  C   UNL     1      26.504  -0.098  54.133  1.00  0.00    +0.003 A 
ATOM     16  C   UNL     1      26.143   0.557  51.835  1.00  0.00    +0.011 A 
ATOM     17  C   UNL     1      26.093   1.165  54.556  1.00  0.00    +0.001 A 
ATOM     18  C   UNL     1      25.708   2.126  53.620  1.00  0.00    +0.008 A 
ATOM     19  C   UNL     1      26.945  -1.781  52.312  1.00  0.00    +0.044 C 
ENDBRANCH   1  13
BRANCH  11  20
ATOM     20  N   UNL     1      25.579   5.664  49.700  1.00  0.00    -0.351 N 
ATOM     21  C   UNL     1      25.359   7.099  50.024  1.00  0.00    +0.146 C 
ATOM     22  C   UNL     1      26.788   5.446  48.865  1.00  0.00    +0.146 C 
ATOM     23  C   UNL     1      26.706   7.833  50.124  1.00  0.00    +0.181 C 
ATOM     24  C   UNL     1      27.156   6.699  48.057  1.00  0.00    +0.181 C 
ATOM     25  O   UNL     1      27.436   7.840  48.887  1.00  0.00    -0.378 OA
ENDBRANCH  11  20
TORSDOF 2
ENDMDL
MODEL 8
REMARK VINA RESULT:    -6.879      3.361      7.616
REMARK INTER + INTRA:          -8.117
REMARK INTER:                  -7.275
REMARK INTRA:                  -0.842
REMARK UNBOUND:                -0.434
REMARK SMILES Cc1cccc(C=C2C(=O)N(C)c3ncnc(N4CCOCC4)c32)c1
REMARK SMILES IDX 7 1 8 2 9 3 10 4 11 5 12 6 13 7 14 8 15 9 16 10 17 11 24 12
REMARK SMILES IDX 6 13 2 14 3 15 25 16 4 17 5 18 1 19 18 20 19 21 23 22 20 23
REMARK SMILES IDX 22 24 21 25
REMARK H PARENT
ROOT
ATOM      1  C   UNL     1      18.748   0.905  50.856  1.00  0.00    +0.023 C 
ATOM      2  C   UNL     1      19.748   0.471  51.639  1.00  0.00    +0.055 C 
ATOM      3  C   UNL     1      19.635  -0.452  52.828  1.00  0.00    +0.260 C 
ATOM      4  O   UNL     1      18.643  -1.019  53.243  1.00  0.00    -0.269 OA
ATOM      5  N   UNL     1      20.919  -0.510  53.348  1.00  0.00    -0.295 N 
ATOM      6  C   UNL     1      21.321  -1.266  54.502  1.00  0.00    +0.155 C 
ATOM      7  C   UNL     1      21.818   0.248  52.591  1.00  0.00    +0.148 A 
ATOM      8  N   UNL     1      23.120   0.360  52.868  1.00  0.00    -0.218 NA
ATOM      9  C   UNL     1      23.782   1.129  51.998  1.00  0.00    +0.226 A 
ATOM     10  N   UNL     1      23.263   1.745  50.916  1.00  0.00    -0.219 NA
ATOM     11  C   UNL     1      21.942   1.589  50.670  1.00  0.00    +0.142 A 
ATOM     12  C   UNL     1      21.164   0.840  51.525  1.00  0.00    +0.073 A 
ENDROOT
BRANCH   1  13
ATOM     13  C   UNL     1      17.327   0.564  50.973  1.00  0.00    -0.025 A 
ATOM     14  C   UNL     1      15.100   0.990  51.866  1.00  0.00    -0.051 A 
ATOM     15  C   UNL     1      14.603  -0.074  51.104  1.00  0.00    +0.003 A 
ATOM     16  C   UNL     1      16.467   1.298  51.799  1.00  0.00    +0.011 A 
ATOM     17  C   UNL     1      15.452  -0.802  50.272  1.00  0.00    +0.001 A 
ATOM     18  C   UNL     1      16.808  -0.481  50.202  1.00  0.00    +0.008 A 
ATOM     19  C   UNL     1      14.199   1.748  52.795  1.00  0.00    +0.044 C 
ENDBRANCH   1  13
BRANCH  11  20
ATOM     20  N   UNL     1      21.397   2.163  49.502  1.00  0.00    -0.351 N 
ATOM     21  C   UNL     1      22.292   1.877  48.350  1.00  0.00    +0.146 C 
ATOM     22  C   UNL     1      21.097   3.611  49.647  1.00  0.00    +0.146 C 
ATOM     23  C   UNL     1      22.054   2.897  47.225  1.00  0.00    +0.181 C 
ATOM     24  C   UNL     1      22.193   4.484  49.019  1.00  0.00    +0.181 C 
ATOM     25  O   UNL     1      22.366   4.244  47.611  1.00  0.00    -0.378 OA
ENDBRANCH  11  20
TORSDOF 2
ENDMDL
MODEL 9
REMARK VINA RESULT:    -6.847      4.393      6.636
REMARK INTER + INTRA:          -8.081
REMARK INTER:                  -7.291
REMARK INTRA:                  -0.791
REMARK UNBOUND:                -0.434
REMARK SMILES Cc1cccc(C=C2C(=O)N(C)c3ncnc(N4CCOCC4)c32)c1
REMARK SMILES IDX 7 1 8 2 9 3 10 4 11 5 12 6 13 7 14 8 15 9 16 10 17 11 24 12
REMARK SMILES IDX 6 13 2 14 3 15 25 16 4 17 5 18 1 19 18 20 19 21 23 22 20 23
REMARK SMILES IDX 22 24 21 25
REMARK H PARENT
ROOT
ATOM      1  C   UNL     1      20.319   1.574  51.017  1.00  0.00    +0.023 C 
ATOM      2  C   UNL     1      20.312   0.648  51.989  1.00  0.00    +0.055 C 
ATOM      3  C   UNL     1      21.481   0.218  52.842  1.00  0.00    +0.260 C 
ATOM      4  O   UNL     1      22.607   0.675  52.852  1.00  0.00    -0.269 OA
ATOM      5  N   UNL     1      20.986  -0.822  53.613  1.00  0.00    -0.295 N 
ATOM      6  C   UNL     1      21.731  -1.570  54.587  1.00  0.00    +0.155 C 
ATOM      7  C   UNL     1      19.631  -1.058  53.355  1.00  0.00    +0.148 A 
ATOM      8  N   UNL     1      18.906  -1.999  53.965  1.00  0.00    -0.218 NA
ATOM      9  C   UNL     1      17.632  -2.031  53.563  1.00  0.00    +0.226 A 
ATOM     10  N   UNL     1      17.058  -1.215  52.654  1.00  0.00    -0.219 NA
ATOM     11  C   UNL     1      17.831  -0.269  52.074  1.00  0.00    +0.142 A 
ATOM     12  C   UNL     1      19.167  -0.173  52.398  1.00  0.00    +0.073 A 
ENDROOT
BRANCH   1  13
ATOM     13  C   UNL     1      21.462   2.384  50.582  1.00  0.00    -0.025 A 
ATOM     14  C   UNL     1      22.973   4.272  50.882  1.00  0.00    -0.051 A 
ATOM     15  C   UNL     1      23.700   3.853  49.762  1.00  0.00    +0.003 A 
ATOM     16  C   UNL     1      21.849   3.534  51.281  1.00  0.00    +0.011 A 
ATOM     17  C   UNL     1      23.327   2.703  49.068  1.00  0.00    +0.001 A 
ATOM     18  C   UNL     1      22.215   1.967  49.480  1.00  0.00    +0.008 A 
ATOM     19  C   UNL     1      23.345   5.532  51.604  1.00  0.00    +0.044 C 
ENDBRANCH   1  13
BRANCH  11  20
ATOM     20  N   UNL     1      17.231   0.642  51.178  1.00  0.00    -0.351 N 
ATOM     21  C   UNL     1      15.961   1.145  51.766  1.00  0.00    +0.146 C 
ATOM     22  C   UNL     1      17.047   0.083  49.814  1.00  0.00    +0.146 C 
ATOM     23  C   UNL     1      15.037   1.675  50.659  1.00  0.00    +0.181 C 
ATOM     24  C   UNL     1      15.606  -0.393  49.583  1.00  0.00    +0.181 C 
ATOM     25  O   UNL     1      14.636   0.660  49.725  1.00  0.00    -0.378 OA
ENDBRANCH  11  20
TORSDOF 2
ENDMDL
