REMARK SMILES Cc1cc(C)c(N(C(=O)c2ccccc2)c2ccccc2)[nH]1
REMARK SMILES IDX 7 1 6 2 2 3 3 4 22 5 4 6 1 7 5 9 8 10 9 11 10 12 11 13 15 14
REMARK SMILES IDX 12 15 14 16 13 17 16 18 17 19 21 20 18 21 20 22 19 23
REMARK H PARENT 22 8
ROOT
ATOM      1  N   UNL     1      -0.230   0.089   0.274  1.00  0.00    -0.262 N 
ENDROOT
BRANCH   1   2
ATOM      2  C   UNL     1      -1.299  -0.655  -0.250  1.00  0.00    +0.120 A 
ATOM      3  C   UNL     1      -2.974  -2.175  -0.196  1.00  0.00    +0.014 A 
ATOM      4  C   UNL     1      -2.906  -1.675  -1.477  1.00  0.00    +0.028 A 
ATOM      5  N   UNL     1      -1.965  -1.586   0.520  1.00  0.00    -0.345 N 
ATOM      6  C   UNL     1      -1.826  -0.745  -1.536  1.00  0.00    -0.008 A 
ATOM      7  C   UNL     1      -3.884  -3.171   0.418  1.00  0.00    +0.064 C 
ATOM      8  H   UNL     1      -1.749  -1.751   1.498  1.00  0.00    +0.168 HD
ATOM      9  C   UNL     1      -1.356  -0.077  -2.781  1.00  0.00    +0.048 C 
ENDBRANCH   1   2
BRANCH   1  10
ATOM     10  C   UNL     1       0.477  -0.505   1.334  1.00  0.00    +0.263 C 
ATOM     11  O   UNL     1      -0.056  -1.005   2.328  1.00  0.00    -0.268 OA
BRANCH  10  12
ATOM     12  C   UNL     1       1.951  -0.676   1.158  1.00  0.00    +0.040 A 
ATOM     13  C   UNL     1       2.543  -0.710  -0.112  1.00  0.00    +0.014 A 
ATOM     14  C   UNL     1       2.749  -0.842   2.298  1.00  0.00    +0.014 A 
ATOM     15  C   UNL     1       3.923  -0.881  -0.235  1.00  0.00    +0.001 A 
ATOM     16  C   UNL     1       4.128  -1.013   2.170  1.00  0.00    +0.001 A 
ATOM     17  C   UNL     1       4.714  -1.029   0.904  1.00  0.00    +0.000 A 
ENDBRANCH  10  12
ENDBRANCH   1  10
BRANCH   1  18
ATOM     18  C   UNL     1      -0.190   1.522   0.063  1.00  0.00    +0.051 A 
ATOM     19  C   UNL     1      -1.274   2.228  -0.493  1.00  0.00    +0.027 A 
ATOM     20  C   UNL     1       0.907   2.295   0.482  1.00  0.00    +0.027 A 
ATOM     21  C   UNL     1      -1.240   3.616  -0.678  1.00  0.00    +0.002 A 
ATOM     22  C   UNL     1       0.948   3.684   0.297  1.00  0.00    +0.002 A 
ATOM     23  C   UNL     1      -0.123   4.344  -0.291  1.00  0.00    +0.000 A 
ENDBRANCH   1  18
TORSDOF 4
