REMARK SMILES Cc1cc(C)c(N(C(=O)c2ccccn2)c2ccc(O)cc2)[nH]1
REMARK SMILES IDX 16 1 17 2 18 3 19 4 21 5 22 6 7 7 6 8 2 9 3 10 23 11 4 12
REMARK SMILES IDX 1 13 5 15 8 16 9 17 10 18 11 19 15 20 12 21 14 22 13 23
REMARK SMILES IDX 20 24
REMARK H PARENT 23 14 20 25
ROOT
ATOM      1  C   UNL     1      -0.070   0.958  -0.201  1.00  0.00    +0.051 A 
ATOM      2  C   UNL     1      -0.557   1.247  -1.487  1.00  0.00    +0.030 A 
ATOM      3  C   UNL     1      -0.504   2.547  -1.995  1.00  0.00    +0.048 A 
ATOM      4  C   UNL     1       0.036   3.566  -1.221  1.00  0.00    +0.115 A 
ATOM      5  C   UNL     1       0.526   3.308   0.053  1.00  0.00    +0.048 A 
ATOM      6  C   UNL     1       0.474   2.005   0.560  1.00  0.00    +0.030 A 
ENDROOT
BRANCH   1   7
ATOM      7  N   UNL     1      -0.114  -0.379   0.314  1.00  0.00    -0.261 N 
BRANCH   7   8
ATOM      8  C   UNL     1      -1.312  -1.103   0.161  1.00  0.00    +0.120 A 
ATOM      9  C   UNL     1      -3.551  -1.375  -0.090  1.00  0.00    +0.014 A 
ATOM     10  C   UNL     1      -2.985  -2.626  -0.020  1.00  0.00    +0.028 A 
ATOM     11  N   UNL     1      -2.531  -0.467   0.024  1.00  0.00    -0.345 N 
ATOM     12  C   UNL     1      -1.575  -2.470   0.139  1.00  0.00    -0.008 A 
ATOM     13  C   UNL     1      -4.963  -0.950  -0.241  1.00  0.00    +0.064 C 
ATOM     14  H   UNL     1      -2.655   0.535   0.055  1.00  0.00    +0.168 HD
ATOM     15  C   UNL     1      -0.619  -3.610   0.217  1.00  0.00    +0.048 C 
ENDBRANCH   7   8
BRANCH   7  16
ATOM     16  C   UNL     1       0.907  -0.916   1.126  1.00  0.00    +0.282 C 
ATOM     17  O   UNL     1       0.758  -1.765   2.005  1.00  0.00    -0.266 OA
BRANCH  16  18
ATOM     18  C   UNL     1       2.304  -0.458   0.842  1.00  0.00    +0.129 A 
ATOM     19  C   UNL     1       2.819  -0.571  -0.447  1.00  0.00    +0.034 A 
ATOM     20  N   UNL     1       3.008   0.032   1.896  1.00  0.00    -0.251 NA
ATOM     21  C   UNL     1       4.125  -0.147  -0.670  1.00  0.00    +0.004 A 
ATOM     22  C   UNL     1       4.274   0.424   1.644  1.00  0.00    +0.112 A 
ATOM     23  C   UNL     1       4.868   0.359   0.392  1.00  0.00    +0.020 A 
ENDBRANCH  16  18
ENDBRANCH   7  16
ENDBRANCH   1   7
BRANCH   4  24
ATOM     24  O   UNL     1       0.067   4.819  -1.755  1.00  0.00    -0.508 OA
ATOM     25  H   UNL     1       0.469   5.424  -1.109  1.00  0.00    +0.293 HD
ENDBRANCH   4  24
TORSDOF 5
