MODEL 1
REMARK VINA RESULT:    -9.248      0.000      0.000
REMARK INTER + INTRA:         -12.124
REMARK INTER:                 -10.870
REMARK INTRA:                  -1.255
REMARK UNBOUND:                -1.255
REMARK SMILES Cc1cccc(C=C2C(=O)N(C)c3ncnc(Nc4[nH]c(C)cc4C)c32)c1
REMARK SMILES IDX 7 1 8 2 9 3 10 4 11 5 12 6 13 7 14 8 15 9 16 10 17 11 26 12
REMARK SMILES IDX 6 13 2 14 3 15 27 16 4 17 5 18 1 19 18 20 19 22 20 23 24 24
REMARK SMILES IDX 21 25 23 26 25 28 22 29
REMARK H PARENT 18 21 20 27
ROOT
ATOM      1  C   UNL     1      25.688   0.831  52.046  1.00  0.00    +0.023 C 
ATOM      2  C   UNL     1      24.466   0.626  52.564  1.00  0.00    +0.055 C 
ATOM      3  C   UNL     1      24.143  -0.142  53.825  1.00  0.00    +0.260 C 
ATOM      4  O   UNL     1      24.919  -0.590  54.645  1.00  0.00    -0.269 OA
ATOM      5  N   UNL     1      22.760  -0.229  53.837  1.00  0.00    -0.295 N 
ATOM      6  C   UNL     1      21.972  -0.888  54.841  1.00  0.00    +0.155 C 
ATOM      7  C   UNL     1      22.190   0.432  52.745  1.00  0.00    +0.148 A 
ATOM      8  N   UNL     1      20.876   0.507  52.521  1.00  0.00    -0.218 NA
ATOM      9  C   UNL     1      20.562   1.199  51.424  1.00  0.00    +0.226 A 
ATOM     10  N   UNL     1      21.427   1.814  50.592  1.00  0.00    -0.218 NA
ATOM     11  C   UNL     1      22.750   1.754  50.887  1.00  0.00    +0.145 A 
ATOM     12  C   UNL     1      23.179   1.002  51.959  1.00  0.00    +0.073 A 
ENDROOT
BRANCH   1  13
ATOM     13  C   UNL     1      26.975   0.432  52.629  1.00  0.00    -0.025 A 
ATOM     14  C   UNL     1      28.594  -1.279  53.254  1.00  0.00    -0.051 A 
ATOM     15  C   UNL     1      29.393  -0.292  53.841  1.00  0.00    +0.003 A 
ATOM     16  C   UNL     1      27.386  -0.906  52.644  1.00  0.00    +0.011 A 
ATOM     17  C   UNL     1      28.982   1.041  53.842  1.00  0.00    +0.001 A 
ATOM     18  C   UNL     1      27.774   1.401  53.244  1.00  0.00    +0.008 A 
ATOM     19  C   UNL     1      29.053  -2.706  53.213  1.00  0.00    +0.044 C 
ENDBRANCH   1  13
BRANCH  11  20
ATOM     20  N   UNL     1      23.685   2.432  50.071  1.00  0.00    -0.326 N 
ATOM     21  H   UNL     1      24.382   1.791  49.704  1.00  0.00    +0.170 HD
BRANCH  20  22
ATOM     22  C   UNL     1      24.073   3.727  50.178  1.00  0.00    +0.112 A 
ATOM     23  N   UNL     1      23.194   4.725  50.514  1.00  0.00    -0.345 N 
ATOM     24  C   UNL     1      25.312   4.308  49.974  1.00  0.00    -0.009 A 
ATOM     25  C   UNL     1      23.835   5.936  50.544  1.00  0.00    +0.014 A 
ATOM     26  C   UNL     1      25.153   5.706  50.208  1.00  0.00    +0.028 A 
ATOM     27  H   UNL     1      22.225   4.548  50.748  1.00  0.00    +0.168 HD
ATOM     28  C   UNL     1      26.571   3.625  49.582  1.00  0.00    +0.048 C 
ATOM     29  C   UNL     1      23.121   7.186  50.895  1.00  0.00    +0.064 C 
ENDBRANCH  20  22
ENDBRANCH  11  20
TORSDOF 3
ENDMDL
MODEL 2
REMARK VINA RESULT:    -8.712      1.551      1.961
REMARK INTER + INTRA:         -11.495
REMARK INTER:                 -10.573
REMARK INTRA:                  -0.921
REMARK UNBOUND:                -1.255
REMARK SMILES Cc1cccc(C=C2C(=O)N(C)c3ncnc(Nc4[nH]c(C)cc4C)c32)c1
REMARK SMILES IDX 7 1 8 2 9 3 10 4 11 5 12 6 13 7 14 8 15 9 16 10 17 11 26 12
REMARK SMILES IDX 6 13 2 14 3 15 27 16 4 17 5 18 1 19 18 20 19 22 20 23 24 24
REMARK SMILES IDX 21 25 23 26 25 28 22 29
REMARK H PARENT 18 21 20 27
ROOT
ATOM      1  C   UNL     1      25.485   0.974  52.036  1.00  0.00    +0.023 C 
ATOM      2  C   UNL     1      24.275   0.614  52.494  1.00  0.00    +0.055 C 
ATOM      3  C   UNL     1      23.991  -0.219  53.722  1.00  0.00    +0.260 C 
ATOM      4  O   UNL     1      24.779  -0.596  54.567  1.00  0.00    -0.269 OA
ATOM      5  N   UNL     1      22.629  -0.465  53.671  1.00  0.00    -0.295 N 
ATOM      6  C   UNL     1      21.881  -1.238  54.624  1.00  0.00    +0.155 C 
ATOM      7  C   UNL     1      22.032   0.154  52.569  1.00  0.00    +0.148 A 
ATOM      8  N   UNL     1      20.728   0.083  52.288  1.00  0.00    -0.218 NA
ATOM      9  C   UNL     1      20.382   0.762  51.193  1.00  0.00    +0.226 A 
ATOM     10  N   UNL     1      21.203   1.495  50.414  1.00  0.00    -0.218 NA
ATOM     11  C   UNL     1      22.511   1.581  50.767  1.00  0.00    +0.145 A 
ATOM     12  C   UNL     1      22.980   0.855  51.841  1.00  0.00    +0.073 A 
ENDROOT
BRANCH   1  13
ATOM     13  C   UNL     1      26.784   0.710  52.667  1.00  0.00    -0.025 A 
ATOM     14  C   UNL     1      28.574  -0.814  53.308  1.00  0.00    -0.051 A 
ATOM     15  C   UNL     1      29.217   0.238  53.970  1.00  0.00    +0.003 A 
ATOM     16  C   UNL     1      27.358  -0.566  52.652  1.00  0.00    +0.011 A 
ATOM     17  C   UNL     1      28.644   1.509  54.000  1.00  0.00    +0.001 A 
ATOM     18  C   UNL     1      27.429   1.743  53.356  1.00  0.00    +0.008 A 
ATOM     19  C   UNL     1      29.209  -2.170  53.236  1.00  0.00    +0.044 C 
ENDBRANCH   1  13
BRANCH  11  20
ATOM     20  N   UNL     1      23.394   2.384  50.008  1.00  0.00    -0.326 N 
ATOM     21  H   UNL     1      24.231   2.607  50.538  1.00  0.00    +0.170 HD
BRANCH  20  22
ATOM     22  C   UNL     1      23.061   3.265  49.032  1.00  0.00    +0.112 A 
ATOM     23  N   UNL     1      22.407   2.874  47.891  1.00  0.00    -0.345 N 
ATOM     24  C   UNL     1      23.292   4.625  48.940  1.00  0.00    -0.009 A 
ATOM     25  C   UNL     1      22.199   3.950  47.068  1.00  0.00    +0.014 A 
ATOM     26  C   UNL     1      22.744   5.051  47.694  1.00  0.00    +0.028 A 
ATOM     27  H   UNL     1      22.094   1.924  47.734  1.00  0.00    +0.168 HD
ATOM     28  C   UNL     1      23.981   5.488  49.933  1.00  0.00    +0.048 C 
ATOM     29  C   UNL     1      21.498   3.812  45.769  1.00  0.00    +0.064 C 
ENDBRANCH  20  22
ENDBRANCH  11  20
TORSDOF 3
ENDMDL
MODEL 3
REMARK VINA RESULT:    -8.619      2.601      6.634
REMARK INTER + INTRA:         -11.385
REMARK INTER:                 -10.350
REMARK INTRA:                  -1.035
REMARK UNBOUND:                -1.255
REMARK SMILES Cc1cccc(C=C2C(=O)N(C)c3ncnc(Nc4[nH]c(C)cc4C)c32)c1
REMARK SMILES IDX 7 1 8 2 9 3 10 4 11 5 12 6 13 7 14 8 15 9 16 10 17 11 26 12
REMARK SMILES IDX 6 13 2 14 3 15 27 16 4 17 5 18 1 19 18 20 19 22 20 23 24 24
REMARK SMILES IDX 21 25 23 26 25 28 22 29
REMARK H PARENT 18 21 20 27
ROOT
ATOM      1  C   UNL     1      23.376   1.594  51.663  1.00  0.00    +0.023 C 
ATOM      2  C   UNL     1      22.857   0.659  52.476  1.00  0.00    +0.055 C 
ATOM      3  C   UNL     1      21.409   0.234  52.545  1.00  0.00    +0.260 C 
ATOM      4  O   UNL     1      20.499   0.559  51.808  1.00  0.00    -0.269 OA
ATOM      5  N   UNL     1      21.344  -0.610  53.642  1.00  0.00    -0.295 N 
ATOM      6  C   UNL     1      20.160  -1.262  54.128  1.00  0.00    +0.155 C 
ATOM      7  C   UNL     1      22.597  -0.784  54.237  1.00  0.00    +0.148 A 
ATOM      8  N   UNL     1      22.815  -1.553  55.306  1.00  0.00    -0.218 NA
ATOM      9  C   UNL     1      24.093  -1.577  55.692  1.00  0.00    +0.226 A 
ATOM     10  N   UNL     1      25.121  -0.940  55.095  1.00  0.00    -0.218 NA
ATOM     11  C   UNL     1      24.860  -0.211  53.980  1.00  0.00    +0.145 A 
ATOM     12  C   UNL     1      23.560  -0.065  53.545  1.00  0.00    +0.073 A 
ENDROOT
BRANCH   1  13
ATOM     13  C   UNL     1      22.674   2.343  50.614  1.00  0.00    -0.025 A 
ATOM     14  C   UNL     1      21.423   4.293  49.859  1.00  0.00    -0.051 A 
ATOM     15  C   UNL     1      21.257   3.688  48.608  1.00  0.00    +0.003 A 
ATOM     16  C   UNL     1      22.139   3.613  50.857  1.00  0.00    +0.011 A 
ATOM     17  C   UNL     1      21.776   2.417  48.364  1.00  0.00    +0.001 A 
ATOM     18  C   UNL     1      22.477   1.743  49.365  1.00  0.00    +0.008 A 
ATOM     19  C   UNL     1      20.905   5.677  50.111  1.00  0.00    +0.044 C 
ENDBRANCH   1  13
BRANCH  11  20
ATOM     20  N   UNL     1      25.918   0.427  53.292  1.00  0.00    -0.326 N 
ATOM     21  H   UNL     1      25.607   0.783  52.393  1.00  0.00    +0.170 HD
BRANCH  20  22
ATOM     22  C   UNL     1      27.242   0.147  53.390  1.00  0.00    +0.112 A 
ATOM     23  N   UNL     1      27.712  -1.140  53.430  1.00  0.00    -0.345 N 
ATOM     24  C   UNL     1      28.329   0.996  53.486  1.00  0.00    -0.009 A 
ATOM     25  C   UNL     1      29.078  -1.147  53.539  1.00  0.00    +0.014 A 
ATOM     26  C   UNL     1      29.487   0.169  53.580  1.00  0.00    +0.028 A 
ATOM     27  H   UNL     1      27.109  -1.949  53.340  1.00  0.00    +0.168 HD
ATOM     28  C   UNL     1      28.312   2.481  53.497  1.00  0.00    +0.048 C 
ATOM     29  C   UNL     1      29.849  -2.412  53.589  1.00  0.00    +0.064 C 
ENDBRANCH  20  22
ENDBRANCH  11  20
TORSDOF 3
ENDMDL
MODEL 4
REMARK VINA RESULT:    -8.597      2.383      6.737
REMARK INTER + INTRA:         -11.359
REMARK INTER:                 -10.056
REMARK INTRA:                  -1.303
REMARK UNBOUND:                -1.255
REMARK SMILES Cc1cccc(C=C2C(=O)N(C)c3ncnc(Nc4[nH]c(C)cc4C)c32)c1
REMARK SMILES IDX 7 1 8 2 9 3 10 4 11 5 12 6 13 7 14 8 15 9 16 10 17 11 26 12
REMARK SMILES IDX 6 13 2 14 3 15 27 16 4 17 5 18 1 19 18 20 19 22 20 23 24 24
REMARK SMILES IDX 21 25 23 26 25 28 22 29
REMARK H PARENT 18 21 20 27
ROOT
ATOM      1  C   UNL     1      22.856   2.096  51.980  1.00  0.00    +0.023 C 
ATOM      2  C   UNL     1      23.656   1.385  52.790  1.00  0.00    +0.055 C 
ATOM      3  C   UNL     1      25.166   1.422  52.819  1.00  0.00    +0.260 C 
ATOM      4  O   UNL     1      25.906   2.178  52.221  1.00  0.00    -0.269 OA
ATOM      5  N   UNL     1      25.525   0.397  53.679  1.00  0.00    -0.295 N 
ATOM      6  C   UNL     1      26.869   0.023  54.021  1.00  0.00    +0.155 C 
ATOM      7  C   UNL     1      24.405  -0.247  54.214  1.00  0.00    +0.148 A 
ATOM      8  N   UNL     1      24.470  -1.265  55.075  1.00  0.00    -0.218 NA
ATOM      9  C   UNL     1      23.273  -1.713  55.460  1.00  0.00    +0.226 A 
ATOM     10  N   UNL     1      22.076  -1.219  55.084  1.00  0.00    -0.218 NA
ATOM     11  C   UNL     1      22.059  -0.151  54.247  1.00  0.00    +0.145 A 
ATOM     12  C   UNL     1      23.242   0.338  53.737  1.00  0.00    +0.073 A 
ENDROOT
BRANCH   1  13
ATOM     13  C   UNL     1      23.263   3.121  51.011  1.00  0.00    -0.025 A 
ATOM     14  C   UNL     1      23.832   5.424  50.454  1.00  0.00    -0.051 A 
ATOM     15  C   UNL     1      23.940   5.060  49.107  1.00  0.00    +0.003 A 
ATOM     16  C   UNL     1      23.497   4.445  51.401  1.00  0.00    +0.011 A 
ATOM     17  C   UNL     1      23.695   3.746  48.709  1.00  0.00    +0.001 A 
ATOM     18  C   UNL     1      23.351   2.781  49.656  1.00  0.00    +0.008 A 
ATOM     19  C   UNL     1      24.138   6.825  50.891  1.00  0.00    +0.044 C 
ENDBRANCH   1  13
BRANCH  11  20
ATOM     20  N   UNL     1      20.826   0.432  53.872  1.00  0.00    -0.326 N 
ATOM     21  H   UNL     1      20.639   1.271  54.412  1.00  0.00    +0.170 HD
BRANCH  20  22
ATOM     22  C   UNL     1      19.735  -0.210  53.383  1.00  0.00    +0.112 A 
ATOM     23  N   UNL     1      19.270  -1.377  53.934  1.00  0.00    -0.345 N 
ATOM     24  C   UNL     1      18.921   0.104  52.311  1.00  0.00    -0.009 A 
ATOM     25  C   UNL     1      18.168  -1.821  53.251  1.00  0.00    +0.014 A 
ATOM     26  C   UNL     1      17.932  -0.920  52.234  1.00  0.00    +0.028 A 
ATOM     27  H   UNL     1      19.679  -1.797  54.759  1.00  0.00    +0.168 HD
ATOM     28  C   UNL     1      19.043   1.272  51.402  1.00  0.00    +0.048 C 
ATOM     29  C   UNL     1      17.454  -3.058  53.645  1.00  0.00    +0.064 C 
ENDBRANCH  20  22
ENDBRANCH  11  20
TORSDOF 3
ENDMDL
MODEL 5
REMARK VINA RESULT:    -8.379      2.196      6.321
REMARK INTER + INTRA:         -11.103
REMARK INTER:                  -9.853
REMARK INTRA:                  -1.250
REMARK UNBOUND:                -1.255
REMARK SMILES Cc1cccc(C=C2C(=O)N(C)c3ncnc(Nc4[nH]c(C)cc4C)c32)c1
REMARK SMILES IDX 7 1 8 2 9 3 10 4 11 5 12 6 13 7 14 8 15 9 16 10 17 11 26 12
REMARK SMILES IDX 6 13 2 14 3 15 27 16 4 17 5 18 1 19 18 20 19 22 20 23 24 24
REMARK SMILES IDX 21 25 23 26 25 28 22 29
REMARK H PARENT 18 21 20 27
ROOT
ATOM      1  C   UNL     1      25.279   3.572  50.832  1.00  0.00    +0.023 C 
ATOM      2  C   UNL     1      24.215   2.801  50.555  1.00  0.00    +0.055 C 
ATOM      3  C   UNL     1      23.301   2.929  49.359  1.00  0.00    +0.260 C 
ATOM      4  O   UNL     1      23.435   3.651  48.391  1.00  0.00    -0.269 OA
ATOM      5  N   UNL     1      22.267   2.043  49.612  1.00  0.00    -0.295 N 
ATOM      6  C   UNL     1      21.132   1.815  48.761  1.00  0.00    +0.155 C 
ATOM      7  C   UNL     1      22.459   1.352  50.813  1.00  0.00    +0.148 A 
ATOM      8  N   UNL     1      21.615   0.434  51.289  1.00  0.00    -0.218 NA
ATOM      9  C   UNL     1      22.009  -0.102  52.446  1.00  0.00    +0.226 A 
ATOM     10  N   UNL     1      23.146   0.183  53.112  1.00  0.00    -0.218 NA
ATOM     11  C   UNL     1      23.999   1.085  52.565  1.00  0.00    +0.145 A 
ATOM     12  C   UNL     1      23.647   1.747  51.408  1.00  0.00    +0.073 A 
ENDROOT
BRANCH   1  13
ATOM     13  C   UNL     1      25.834   4.647  50.000  1.00  0.00    -0.025 A 
ATOM     14  C   UNL     1      25.757   6.916  49.115  1.00  0.00    -0.051 A 
ATOM     15  C   UNL     1      26.872   6.632  48.320  1.00  0.00    +0.003 A 
ATOM     16  C   UNL     1      25.247   5.917  49.958  1.00  0.00    +0.011 A 
ATOM     17  C   UNL     1      27.454   5.365  48.346  1.00  0.00    +0.001 A 
ATOM     18  C   UNL     1      26.933   4.374  49.178  1.00  0.00    +0.008 A 
ATOM     19  C   UNL     1      25.156   8.290  49.122  1.00  0.00    +0.044 C 
ENDBRANCH   1  13
BRANCH  11  20
ATOM     20  N   UNL     1      25.228   1.371  53.203  1.00  0.00    -0.326 N 
ATOM     21  H   UNL     1      25.370   2.373  53.292  1.00  0.00    +0.170 HD
BRANCH  20  22
ATOM     22  C   UNL     1      26.355   0.615  53.181  1.00  0.00    +0.112 A 
ATOM     23  N   UNL     1      26.313  -0.748  53.042  1.00  0.00    -0.345 N 
ATOM     24  C   UNL     1      27.682   0.986  53.301  1.00  0.00    -0.009 A 
ATOM     25  C   UNL     1      27.581  -1.269  53.059  1.00  0.00    +0.014 A 
ATOM     26  C   UNL     1      28.451  -0.212  53.223  1.00  0.00    +0.028 A 
ATOM     27  H   UNL     1      25.452  -1.261  52.900  1.00  0.00    +0.168 HD
ATOM     28  C   UNL     1      28.217   2.360  53.483  1.00  0.00    +0.048 C 
ATOM     29  C   UNL     1      27.828  -2.723  52.912  1.00  0.00    +0.064 C 
ENDBRANCH  20  22
ENDBRANCH  11  20
TORSDOF 3
ENDMDL
MODEL 6
REMARK VINA RESULT:    -7.915      2.832      6.440
REMARK INTER + INTRA:         -10.558
REMARK INTER:                  -9.213
REMARK INTRA:                  -1.345
REMARK UNBOUND:                -1.255
REMARK SMILES Cc1cccc(C=C2C(=O)N(C)c3ncnc(Nc4[nH]c(C)cc4C)c32)c1
REMARK SMILES IDX 7 1 8 2 9 3 10 4 11 5 12 6 13 7 14 8 15 9 16 10 17 11 26 12
REMARK SMILES IDX 6 13 2 14 3 15 27 16 4 17 5 18 1 19 18 20 19 22 20 23 24 24
REMARK SMILES IDX 21 25 23 26 25 28 22 29
REMARK H PARENT 18 21 20 27
ROOT
ATOM      1  C   UNL     1      22.622   1.476  50.623  1.00  0.00    +0.023 C 
ATOM      2  C   UNL     1      21.637   0.833  51.271  1.00  0.00    +0.055 C 
ATOM      3  C   UNL     1      20.154   0.972  51.016  1.00  0.00    +0.260 C 
ATOM      4  O   UNL     1      19.605   1.577  50.116  1.00  0.00    -0.269 OA
ATOM      5  N   UNL     1      19.555   0.260  52.041  1.00  0.00    -0.295 N 
ATOM      6  C   UNL     1      18.140   0.110  52.240  1.00  0.00    +0.155 C 
ATOM      7  C   UNL     1      20.501  -0.337  52.880  1.00  0.00    +0.148 A 
ATOM      8  N   UNL     1      20.190  -1.085  53.941  1.00  0.00    -0.218 NA
ATOM      9  C   UNL     1      21.257  -1.560  54.587  1.00  0.00    +0.226 A 
ATOM     10  N   UNL     1      22.548  -1.371  54.246  1.00  0.00    -0.218 NA
ATOM     11  C   UNL     1      22.814  -0.646  53.130  1.00  0.00    +0.145 A 
ATOM     12  C   UNL     1      21.782  -0.052  52.436  1.00  0.00    +0.073 A 
ENDROOT
BRANCH   1  13
ATOM     13  C   UNL     1      22.483   2.384  49.478  1.00  0.00    -0.025 A 
ATOM     14  C   UNL     1      22.241   4.625  48.550  1.00  0.00    -0.051 A 
ATOM     15  C   UNL     1      22.115   4.070  47.272  1.00  0.00    +0.003 A 
ATOM     16  C   UNL     1      22.431   3.773  49.649  1.00  0.00    +0.011 A 
ATOM     17  C   UNL     1      22.152   2.687  47.096  1.00  0.00    +0.001 A 
ATOM     18  C   UNL     1      22.329   1.846  48.196  1.00  0.00    +0.008 A 
ATOM     19  C   UNL     1      22.246   6.113  48.738  1.00  0.00    +0.044 C 
ENDBRANCH   1  13
BRANCH  11  20
ATOM     20  N   UNL     1      24.152  -0.471  52.706  1.00  0.00    -0.326 N 
ATOM     21  H   UNL     1      24.407  -1.160  52.006  1.00  0.00    +0.170 HD
BRANCH  20  22
ATOM     22  C   UNL     1      25.178   0.040  53.432  1.00  0.00    +0.112 A 
ATOM     23  N   UNL     1      25.504  -0.446  54.673  1.00  0.00    -0.345 N 
ATOM     24  C   UNL     1      26.045   1.078  53.146  1.00  0.00    -0.009 A 
ATOM     25  C   UNL     1      26.566   0.246  55.193  1.00  0.00    +0.014 A 
ATOM     26  C   UNL     1      26.920   1.203  54.265  1.00  0.00    +0.028 A 
ATOM     27  H   UNL     1      25.034  -1.237  55.095  1.00  0.00    +0.168 HD
ATOM     28  C   UNL     1      26.070   1.916  51.919  1.00  0.00    +0.048 C 
ATOM     29  C   UNL     1      27.135  -0.083  56.522  1.00  0.00    +0.064 C 
ENDBRANCH  20  22
ENDBRANCH  11  20
TORSDOF 3
ENDMDL
MODEL 7
REMARK VINA RESULT:    -7.884      2.615      6.512
REMARK INTER + INTRA:         -10.521
REMARK INTER:                  -9.093
REMARK INTRA:                  -1.428
REMARK UNBOUND:                -1.255
REMARK SMILES Cc1cccc(C=C2C(=O)N(C)c3ncnc(Nc4[nH]c(C)cc4C)c32)c1
REMARK SMILES IDX 7 1 8 2 9 3 10 4 11 5 12 6 13 7 14 8 15 9 16 10 17 11 26 12
REMARK SMILES IDX 6 13 2 14 3 15 27 16 4 17 5 18 1 19 18 20 19 22 20 23 24 24
REMARK SMILES IDX 21 25 23 26 25 28 22 29
REMARK H PARENT 18 21 20 27
ROOT
ATOM      1  C   UNL     1      22.241   2.938  51.746  1.00  0.00    +0.023 C 
ATOM      2  C   UNL     1      21.394   1.917  51.954  1.00  0.00    +0.055 C 
ATOM      3  C   UNL     1      20.001   1.776  51.385  1.00  0.00    +0.260 C 
ATOM      4  O   UNL     1      19.460   2.478  50.554  1.00  0.00    -0.269 OA
ATOM      5  N   UNL     1      19.473   0.666  52.024  1.00  0.00    -0.295 N 
ATOM      6  C   UNL     1      18.152   0.136  51.826  1.00  0.00    +0.155 C 
ATOM      7  C   UNL     1      20.395   0.083  52.897  1.00  0.00    +0.148 A 
ATOM      8  N   UNL     1      20.143  -1.003  53.633  1.00  0.00    -0.218 NA
ATOM      9  C   UNL     1      21.177  -1.387  54.384  1.00  0.00    +0.226 A 
ATOM     10  N   UNL     1      22.394  -0.807  54.428  1.00  0.00    -0.218 NA
ATOM     11  C   UNL     1      22.620   0.263  53.625  1.00  0.00    +0.145 A 
ATOM     12  C   UNL     1      21.593   0.780  52.866  1.00  0.00    +0.073 A 
ENDROOT
BRANCH   1  13
ATOM     13  C   UNL     1      22.037   4.091  50.861  1.00  0.00    -0.025 A 
ATOM     14  C   UNL     1      22.188   5.154  48.674  1.00  0.00    -0.051 A 
ATOM     15  C   UNL     1      21.725   6.349  49.235  1.00  0.00    +0.003 A 
ATOM     16  C   UNL     1      22.336   4.026  49.495  1.00  0.00    +0.011 A 
ATOM     17  C   UNL     1      21.438   6.425  50.598  1.00  0.00    +0.001 A 
ATOM     18  C   UNL     1      21.599   5.301  51.410  1.00  0.00    +0.008 A 
ATOM     19  C   UNL     1      22.455   5.057  47.201  1.00  0.00    +0.044 C 
ENDBRANCH   1  13
BRANCH  11  20
ATOM     20  N   UNL     1      23.899   0.867  53.599  1.00  0.00    -0.326 N 
ATOM     21  H   UNL     1      23.827   1.879  53.640  1.00  0.00    +0.170 HD
BRANCH  20  22
ATOM     22  C   UNL     1      25.020   0.379  53.012  1.00  0.00    +0.112 A 
ATOM     23  N   UNL     1      25.515  -0.865  53.309  1.00  0.00    -0.345 N 
ATOM     24  C   UNL     1      25.865   0.957  52.083  1.00  0.00    -0.009 A 
ATOM     25  C   UNL     1      26.655  -1.111  52.589  1.00  0.00    +0.014 A 
ATOM     26  C   UNL     1      26.897   0.009  51.820  1.00  0.00    +0.028 A 
ATOM     27  H   UNL     1      25.052  -1.505  53.942  1.00  0.00    +0.168 HD
ATOM     28  C   UNL     1      25.741   2.306  51.472  1.00  0.00    +0.048 C 
ATOM     29  C   UNL     1      27.391  -2.391  52.708  1.00  0.00    +0.064 C 
ENDBRANCH  20  22
ENDBRANCH  11  20
TORSDOF 3
ENDMDL
MODEL 8
REMARK VINA RESULT:    -7.800      2.284      6.245
REMARK INTER + INTRA:         -10.422
REMARK INTER:                  -9.576
REMARK INTRA:                  -0.847
REMARK UNBOUND:                -1.255
REMARK SMILES Cc1cccc(C=C2C(=O)N(C)c3ncnc(Nc4[nH]c(C)cc4C)c32)c1
REMARK SMILES IDX 7 1 8 2 9 3 10 4 11 5 12 6 13 7 14 8 15 9 16 10 17 11 26 12
REMARK SMILES IDX 6 13 2 14 3 15 27 16 4 17 5 18 1 19 18 20 19 22 20 23 24 24
REMARK SMILES IDX 21 25 23 26 25 28 22 29
REMARK H PARENT 18 21 20 27
ROOT
ATOM      1  C   UNL     1      23.829   2.128  51.039  1.00  0.00    +0.023 C 
ATOM      2  C   UNL     1      23.045   1.392  51.843  1.00  0.00    +0.055 C 
ATOM      3  C   UNL     1      21.539   1.468  51.943  1.00  0.00    +0.260 C 
ATOM      4  O   UNL     1      20.775   2.100  51.240  1.00  0.00    -0.269 OA
ATOM      5  N   UNL     1      21.219   0.658  53.020  1.00  0.00    -0.295 N 
ATOM      6  C   UNL     1      19.894   0.420  53.523  1.00  0.00    +0.155 C 
ATOM      7  C   UNL     1      22.354   0.060  53.575  1.00  0.00    +0.148 A 
ATOM      8  N   UNL     1      22.325  -0.771  54.619  1.00  0.00    -0.218 NA
ATOM      9  C   UNL     1      23.529  -1.229  54.967  1.00  0.00    +0.226 A 
ATOM     10  N   UNL     1      24.698  -0.949  54.357  1.00  0.00    -0.218 NA
ATOM     11  C   UNL     1      24.673  -0.140  53.269  1.00  0.00    +0.145 A 
ATOM     12  C   UNL     1      23.487   0.442  52.874  1.00  0.00    +0.073 A 
ENDROOT
BRANCH   1  13
ATOM     13  C   UNL     1      23.395   3.101  50.028  1.00  0.00    -0.025 A 
ATOM     14  C   UNL     1      22.557   3.634  47.803  1.00  0.00    -0.051 A 
ATOM     15  C   UNL     1      22.676   4.997  48.098  1.00  0.00    +0.003 A 
ATOM     16  C   UNL     1      22.915   2.691  48.779  1.00  0.00    +0.011 A 
ATOM     17  C   UNL     1      23.167   5.412  49.336  1.00  0.00    +0.001 A 
ATOM     18  C   UNL     1      23.531   4.467  50.295  1.00  0.00    +0.008 A 
ATOM     19  C   UNL     1      21.988   3.186  46.490  1.00  0.00    +0.044 C 
ENDBRANCH   1  13
BRANCH  11  20
ATOM     20  N   UNL     1      25.870   0.135  52.566  1.00  0.00    -0.326 N 
ATOM     21  H   UNL     1      25.793  -0.140  51.592  1.00  0.00    +0.170 HD
BRANCH  20  22
ATOM     22  C   UNL     1      27.127   0.159  53.075  1.00  0.00    +0.112 A 
ATOM     23  N   UNL     1      27.692   1.309  53.565  1.00  0.00    -0.345 N 
ATOM     24  C   UNL     1      28.062  -0.853  53.194  1.00  0.00    -0.009 A 
ATOM     25  C   UNL     1      28.965   1.065  54.008  1.00  0.00    +0.014 A 
ATOM     26  C   UNL     1      29.222  -0.272  53.785  1.00  0.00    +0.028 A 
ATOM     27  H   UNL     1      27.191   2.188  53.621  1.00  0.00    +0.168 HD
ATOM     28  C   UNL     1      27.907  -2.272  52.785  1.00  0.00    +0.048 C 
ATOM     29  C   UNL     1      29.802   2.134  54.602  1.00  0.00    +0.064 C 
ENDBRANCH  20  22
ENDBRANCH  11  20
TORSDOF 3
ENDMDL
MODEL 9
REMARK VINA RESULT:    -7.695      2.220      6.218
REMARK INTER + INTRA:         -10.299
REMARK INTER:                  -9.145
REMARK INTRA:                  -1.153
REMARK UNBOUND:                -1.255
REMARK SMILES Cc1cccc(C=C2C(=O)N(C)c3ncnc(Nc4[nH]c(C)cc4C)c32)c1
REMARK SMILES IDX 7 1 8 2 9 3 10 4 11 5 12 6 13 7 14 8 15 9 16 10 17 11 26 12
REMARK SMILES IDX 6 13 2 14 3 15 27 16 4 17 5 18 1 19 18 20 19 22 20 23 24 24
REMARK SMILES IDX 21 25 23 26 25 28 22 29
REMARK H PARENT 18 21 20 27
ROOT
ATOM      1  C   UNL     1      21.045   1.621  51.353  1.00  0.00    +0.023 C 
ATOM      2  C   UNL     1      21.769   0.851  52.182  1.00  0.00    +0.055 C 
ATOM      3  C   UNL     1      21.229  -0.090  53.234  1.00  0.00    +0.260 C 
ATOM      4  O   UNL     1      20.072  -0.408  53.427  1.00  0.00    -0.269 OA
ATOM      5  N   UNL     1      22.347  -0.507  53.937  1.00  0.00    -0.295 N 
ATOM      6  C   UNL     1      22.343  -1.407  55.057  1.00  0.00    +0.155 C 
ATOM      7  C   UNL     1      23.522   0.040  53.414  1.00  0.00    +0.148 A 
ATOM      8  N   UNL     1      24.741  -0.205  53.901  1.00  0.00    -0.218 NA
ATOM      9  C   UNL     1      25.715   0.417  53.234  1.00  0.00    +0.226 A 
ATOM     10  N   UNL     1      25.565   1.206  52.151  1.00  0.00    -0.218 NA
ATOM     11  C   UNL     1      24.313   1.386  51.660  1.00  0.00    +0.145 A 
ATOM     12  C   UNL     1      23.232   0.844  52.322  1.00  0.00    +0.073 A 
ENDROOT
BRANCH   1  13
ATOM     13  C   UNL     1      19.583   1.656  51.228  1.00  0.00    -0.025 A 
ATOM     14  C   UNL     1      17.489   0.719  50.406  1.00  0.00    -0.051 A 
ATOM     15  C   UNL     1      16.804   1.820  50.929  1.00  0.00    +0.003 A 
ATOM     16  C   UNL     1      18.881   0.642  50.565  1.00  0.00    +0.011 A 
ATOM     17  C   UNL     1      17.498   2.841  51.579  1.00  0.00    +0.001 A 
ATOM     18  C   UNL     1      18.884   2.762  51.722  1.00  0.00    +0.008 A 
ATOM     19  C   UNL     1      16.741  -0.401  49.746  1.00  0.00    +0.044 C 
ENDBRANCH   1  13
BRANCH  11  20
ATOM     20  N   UNL     1      24.118   2.161  50.493  1.00  0.00    -0.326 N 
ATOM     21  H   UNL     1      23.834   1.579  49.711  1.00  0.00    +0.170 HD
BRANCH  20  22
ATOM     22  C   UNL     1      24.744   3.320  50.169  1.00  0.00    +0.112 A 
ATOM     23  N   UNL     1      25.952   3.338  49.521  1.00  0.00    -0.345 N 
ATOM     24  C   UNL     1      24.373   4.631  50.405  1.00  0.00    -0.009 A 
ATOM     25  C   UNL     1      26.368   4.628  49.321  1.00  0.00    +0.014 A 
ATOM     26  C   UNL     1      25.406   5.453  49.865  1.00  0.00    +0.028 A 
ATOM     27  H   UNL     1      26.420   2.497  49.205  1.00  0.00    +0.168 HD
ATOM     28  C   UNL     1      23.145   5.108  51.090  1.00  0.00    +0.048 C 
ATOM     29  C   UNL     1      27.641   4.938  48.628  1.00  0.00    +0.064 C 
ENDBRANCH  20  22
ENDBRANCH  11  20
TORSDOF 3
ENDMDL
