MODEL 1
REMARK VINA RESULT:    -7.351      0.000      0.000
REMARK INTER + INTRA:         -11.798
REMARK INTER:                 -10.790
REMARK INTRA:                  -1.009
REMARK UNBOUND:                -1.009
REMARK SMILES CCN(CC)CC/N=N/Nc1ccc2ncnc(-c3cccc(Cl)c3)c2c1
REMARK SMILES IDX 8 1 9 2 7 3 6 4 3 5 2 6 1 7 4 8 5 9 10 10 11 12 12 13 27 14
REMARK SMILES IDX 13 15 26 16 14 17 18 18 15 19 17 20 16 21 19 22 20 23 25 24
REMARK SMILES IDX 21 25 23 26 22 27 24 28
REMARK H PARENT 10 11
ROOT
ATOM      1  N   UNL     1      22.625   3.624  50.832  1.00  0.00    -0.170 NA
ATOM      2  N   UNL     1      23.204   2.625  50.370  1.00  0.00    -0.075 NA
ENDROOT
BRANCH   1   3
ATOM      3  C   UNL     1      23.464   4.835  50.763  1.00  0.00    +0.184 C 
BRANCH   3   4
ATOM      4  C   UNL     1      24.429   4.715  49.571  1.00  0.00    +0.110 C 
BRANCH   4   5
ATOM      5  N   UNL     1      25.768   5.324  49.727  1.00  0.00    -0.302 NA
BRANCH   5   6
ATOM      6  C   UNL     1      25.886   6.554  48.924  1.00  0.00    +0.081 C 
ATOM      7  C   UNL     1      27.231   6.673  48.216  1.00  0.00    +0.021 C 
ENDBRANCH   5   6
BRANCH   5   8
ATOM      8  C   UNL     1      26.881   4.393  49.477  1.00  0.00    +0.081 C 
ATOM      9  C   UNL     1      26.544   2.935  49.779  1.00  0.00    +0.021 C 
ENDBRANCH   5   8
ENDBRANCH   4   5
ENDBRANCH   3   4
ENDBRANCH   1   3
BRANCH   2  10
ATOM     10  N   UNL     1      22.327   1.612  50.479  1.00  0.00    -0.260 N 
ATOM     11  H   UNL     1      21.408   1.804  50.095  1.00  0.00    +0.192 HD
BRANCH  10  12
ATOM     12  C   UNL     1      22.354   0.805  51.629  1.00  0.00    +0.059 A 
ATOM     13  C   UNL     1      21.206   0.243  52.184  1.00  0.00    +0.030 A 
ATOM     14  C   UNL     1      23.556   0.645  52.327  1.00  0.00    +0.040 A 
ATOM     15  C   UNL     1      21.274  -0.509  53.365  1.00  0.00    +0.031 A 
ATOM     16  C   UNL     1      23.628  -0.107  53.533  1.00  0.00    +0.029 A 
ATOM     17  C   UNL     1      22.468  -0.701  54.044  1.00  0.00    +0.074 A 
ATOM     18  C   UNL     1      24.789  -0.335  54.293  1.00  0.00    +0.082 A 
ATOM     19  N   UNL     1      22.458  -1.442  55.158  1.00  0.00    -0.236 NA
ATOM     20  N   UNL     1      24.802  -1.094  55.411  1.00  0.00    -0.236 NA
ATOM     21  C   UNL     1      23.628  -1.607  55.787  1.00  0.00    +0.223 A 
BRANCH  18  22
ATOM     22  C   UNL     1      26.106   0.225  53.952  1.00  0.00    +0.002 A 
ATOM     23  C   UNL     1      26.297   1.613  53.827  1.00  0.00    +0.010 A 
ATOM     24  C   UNL     1      27.212  -0.620  53.769  1.00  0.00    +0.030 A 
ATOM     25  C   UNL     1      27.550   2.140  53.506  1.00  0.00    +0.002 A 
ATOM     26  C   UNL     1      28.462  -0.091  53.448  1.00  0.00    +0.041 A 
ATOM     27  C   UNL     1      28.634   1.286  53.312  1.00  0.00    +0.020 A 
ATOM     28 Cl   UNL     1      29.803  -1.145  53.215  1.00  0.00    -0.084 Cl
ENDBRANCH  18  22
ENDBRANCH  10  12
ENDBRANCH   2  10
TORSDOF 8
ENDMDL
MODEL 2
REMARK VINA RESULT:    -7.302      3.140      5.566
REMARK INTER + INTRA:         -11.725
REMARK INTER:                 -10.073
REMARK INTRA:                  -1.652
REMARK UNBOUND:                -1.009
REMARK SMILES CCN(CC)CC/N=N/Nc1ccc2ncnc(-c3cccc(Cl)c3)c2c1
REMARK SMILES IDX 8 1 9 2 7 3 6 4 3 5 2 6 1 7 4 8 5 9 10 10 11 12 12 13 27 14
REMARK SMILES IDX 13 15 26 16 14 17 18 18 15 19 17 20 16 21 19 22 20 23 25 24
REMARK SMILES IDX 21 25 23 26 22 27 24 28
REMARK H PARENT 10 11
ROOT
ATOM      1  N   UNL     1      26.090   0.944  53.778  1.00  0.00    -0.170 NA
ATOM      2  N   UNL     1      25.071   0.626  53.140  1.00  0.00    -0.075 NA
ENDROOT
BRANCH   1   3
ATOM      3  C   UNL     1      26.847   2.021  53.114  1.00  0.00    +0.184 C 
BRANCH   3   4
ATOM      4  C   UNL     1      26.610   1.946  51.596  1.00  0.00    +0.110 C 
BRANCH   4   5
ATOM      5  N   UNL     1      26.044   3.146  50.944  1.00  0.00    -0.302 NA
BRANCH   5   6
ATOM      6  C   UNL     1      24.573   3.080  50.900  1.00  0.00    +0.081 C 
ATOM      7  C   UNL     1      23.908   3.927  51.981  1.00  0.00    +0.021 C 
ENDBRANCH   5   6
BRANCH   5   8
ATOM      8  C   UNL     1      26.623   3.438  49.622  1.00  0.00    +0.081 C 
ATOM      9  C   UNL     1      26.262   4.819  49.082  1.00  0.00    +0.021 C 
ENDBRANCH   5   8
ENDBRANCH   4   5
ENDBRANCH   3   4
ENDBRANCH   1   3
BRANCH   2  10
ATOM     10  N   UNL     1      24.477  -0.341  53.862  1.00  0.00    -0.260 N 
ATOM     11  H   UNL     1      25.015  -1.196  53.949  1.00  0.00    +0.192 HD
BRANCH  10  12
ATOM     12  C   UNL     1      23.084  -0.501  53.774  1.00  0.00    +0.059 A 
ATOM     13  C   UNL     1      22.363  -1.328  54.634  1.00  0.00    +0.030 A 
ATOM     14  C   UNL     1      22.389   0.094  52.715  1.00  0.00    +0.040 A 
ATOM     15  C   UNL     1      20.982  -1.500  54.473  1.00  0.00    +0.031 A 
ATOM     16  C   UNL     1      20.988  -0.088  52.541  1.00  0.00    +0.029 A 
ATOM     17  C   UNL     1      20.280  -0.886  53.446  1.00  0.00    +0.074 A 
ATOM     18  C   UNL     1      20.205   0.480  51.520  1.00  0.00    +0.082 A 
ATOM     19  N   UNL     1      18.960  -1.087  53.364  1.00  0.00    -0.236 NA
ATOM     20  N   UNL     1      18.869   0.302  51.430  1.00  0.00    -0.236 NA
ATOM     21  C   UNL     1      18.316  -0.478  52.361  1.00  0.00    +0.223 A 
BRANCH  18  22
ATOM     22  C   UNL     1      20.757   1.324  50.448  1.00  0.00    +0.002 A 
ATOM     23  C   UNL     1      21.366   0.756  49.315  1.00  0.00    +0.010 A 
ATOM     24  C   UNL     1      20.659   2.722  50.523  1.00  0.00    +0.030 A 
ATOM     25  C   UNL     1      21.885   1.561  48.298  1.00  0.00    +0.002 A 
ATOM     26  C   UNL     1      21.178   3.523  49.506  1.00  0.00    +0.041 A 
ATOM     27  C   UNL     1      21.794   2.948  48.396  1.00  0.00    +0.020 A 
ATOM     28 Cl   UNL     1      21.061   5.237  49.624  1.00  0.00    -0.084 Cl
ENDBRANCH  18  22
ENDBRANCH  10  12
ENDBRANCH   2  10
TORSDOF 8
ENDMDL
MODEL 3
REMARK VINA RESULT:    -7.242      3.225      6.449
REMARK INTER + INTRA:         -11.637
REMARK INTER:                 -10.516
REMARK INTRA:                  -1.121
REMARK UNBOUND:                -1.009
REMARK SMILES CCN(CC)CC/N=N/Nc1ccc2ncnc(-c3cccc(Cl)c3)c2c1
REMARK SMILES IDX 8 1 9 2 7 3 6 4 3 5 2 6 1 7 4 8 5 9 10 10 11 12 12 13 27 14
REMARK SMILES IDX 13 15 26 16 14 17 18 18 15 19 17 20 16 21 19 22 20 23 25 24
REMARK SMILES IDX 21 25 23 26 22 27 24 28
REMARK H PARENT 10 11
ROOT
ATOM      1  N   UNL     1      22.681  -1.706  55.217  1.00  0.00    -0.170 NA
ATOM      2  N   UNL     1      21.903  -0.779  54.929  1.00  0.00    -0.075 NA
ENDROOT
BRANCH   1   3
ATOM      3  C   UNL     1      24.031  -1.216  55.550  1.00  0.00    +0.184 C 
BRANCH   3   4
ATOM      4  C   UNL     1      24.740  -0.768  54.260  1.00  0.00    +0.110 C 
BRANCH   4   5
ATOM      5  N   UNL     1      26.215  -0.863  54.237  1.00  0.00    -0.302 NA
BRANCH   5   6
ATOM      6  C   UNL     1      26.821   0.094  55.179  1.00  0.00    +0.081 C 
ATOM      7  C   UNL     1      28.342   0.150  55.072  1.00  0.00    +0.021 C 
ENDBRANCH   5   6
BRANCH   5   8
ATOM      8  C   UNL     1      26.800  -0.756  52.890  1.00  0.00    +0.081 C 
ATOM      9  C   UNL     1      26.204   0.368  52.046  1.00  0.00    +0.021 C 
ENDBRANCH   5   8
ENDBRANCH   4   5
ENDBRANCH   3   4
ENDBRANCH   1   3
BRANCH   2  10
ATOM     10  N   UNL     1      20.720  -1.363  54.669  1.00  0.00    -0.260 N 
ATOM     11  H   UNL     1      20.716  -2.373  54.764  1.00  0.00    +0.192 HD
BRANCH  10  12
ATOM     12  C   UNL     1      19.911  -0.841  53.646  1.00  0.00    +0.059 A 
ATOM     13  C   UNL     1      18.627  -1.316  53.382  1.00  0.00    +0.030 A 
ATOM     14  C   UNL     1      20.440   0.114  52.771  1.00  0.00    +0.040 A 
ATOM     15  C   UNL     1      17.878  -0.803  52.315  1.00  0.00    +0.031 A 
ATOM     16  C   UNL     1      19.687   0.629  51.678  1.00  0.00    +0.029 A 
ATOM     17  C   UNL     1      18.383   0.169  51.464  1.00  0.00    +0.074 A 
ATOM     18  C   UNL     1      20.127   1.598  50.759  1.00  0.00    +0.082 A 
ATOM     19  N   UNL     1      17.604   0.619  50.474  1.00  0.00    -0.236 NA
ATOM     20  N   UNL     1      19.349   2.078  49.764  1.00  0.00    -0.236 NA
ATOM     21  C   UNL     1      18.123   1.557  49.674  1.00  0.00    +0.223 A 
BRANCH  18  22
ATOM     22  C   UNL     1      21.474   2.188  50.785  1.00  0.00    +0.002 A 
ATOM     23  C   UNL     1      22.416   1.899  49.781  1.00  0.00    +0.010 A 
ATOM     24  C   UNL     1      21.840   3.080  51.805  1.00  0.00    +0.030 A 
ATOM     25  C   UNL     1      23.693   2.465  49.808  1.00  0.00    +0.002 A 
ATOM     26  C   UNL     1      23.116   3.644  51.830  1.00  0.00    +0.041 A 
ATOM     27  C   UNL     1      24.044   3.336  50.838  1.00  0.00    +0.020 A 
ATOM     28 Cl   UNL     1      23.549   4.725  53.097  1.00  0.00    -0.084 Cl
ENDBRANCH  18  22
ENDBRANCH  10  12
ENDBRANCH   2  10
TORSDOF 8
ENDMDL
MODEL 4
REMARK VINA RESULT:    -7.190      1.840      2.782
REMARK INTER + INTRA:         -11.561
REMARK INTER:                  -9.597
REMARK INTRA:                  -1.964
REMARK UNBOUND:                -1.009
REMARK SMILES CCN(CC)CC/N=N/Nc1ccc2ncnc(-c3cccc(Cl)c3)c2c1
REMARK SMILES IDX 8 1 9 2 7 3 6 4 3 5 2 6 1 7 4 8 5 9 10 10 11 12 12 13 27 14
REMARK SMILES IDX 13 15 26 16 14 17 18 18 15 19 17 20 16 21 19 22 20 23 25 24
REMARK SMILES IDX 21 25 23 26 22 27 24 28
REMARK H PARENT 10 11
ROOT
ATOM      1  N   UNL     1      21.970   3.546  47.877  1.00  0.00    -0.170 NA
ATOM      2  N   UNL     1      22.651   2.572  48.247  1.00  0.00    -0.075 NA
ENDROOT
BRANCH   1   3
ATOM      3  C   UNL     1      22.779   4.772  47.752  1.00  0.00    +0.184 C 
BRANCH   3   4
ATOM      4  C   UNL     1      22.725   5.553  49.076  1.00  0.00    +0.110 C 
BRANCH   4   5
ATOM      5  N   UNL     1      23.894   5.434  49.975  1.00  0.00    -0.302 NA
BRANCH   5   6
ATOM      6  C   UNL     1      25.106   5.072  49.220  1.00  0.00    +0.081 C 
ATOM      7  C   UNL     1      25.781   3.812  49.751  1.00  0.00    +0.021 C 
ENDBRANCH   5   6
BRANCH   5   8
ATOM      8  C   UNL     1      23.675   4.544  51.127  1.00  0.00    +0.081 C 
ATOM      9  C   UNL     1      22.240   4.551  51.647  1.00  0.00    +0.021 C 
ENDBRANCH   5   8
ENDBRANCH   4   5
ENDBRANCH   3   4
ENDBRANCH   1   3
BRANCH   2  10
ATOM     10  N   UNL     1      21.799   1.532  48.300  1.00  0.00    -0.260 N 
ATOM     11  H   UNL     1      21.148   1.478  47.524  1.00  0.00    +0.192 HD
BRANCH  10  12
ATOM     12  C   UNL     1      21.302   1.119  49.547  1.00  0.00    +0.059 A 
ATOM     13  C   UNL     1      19.940   0.984  49.811  1.00  0.00    +0.030 A 
ATOM     14  C   UNL     1      22.188   0.946  50.617  1.00  0.00    +0.040 A 
ATOM     15  C   UNL     1      19.489   0.624  51.087  1.00  0.00    +0.031 A 
ATOM     16  C   UNL     1      21.733   0.593  51.918  1.00  0.00    +0.029 A 
ATOM     17  C   UNL     1      20.363   0.416  52.144  1.00  0.00    +0.074 A 
ATOM     18  C   UNL     1      22.547   0.383  53.046  1.00  0.00    +0.082 A 
ATOM     19  N   UNL     1      19.859   0.062  53.331  1.00  0.00    -0.236 NA
ATOM     20  N   UNL     1      22.057   0.008  54.249  1.00  0.00    -0.236 NA
ATOM     21  C   UNL     1      20.732  -0.130  54.327  1.00  0.00    +0.223 A 
BRANCH  18  22
ATOM     22  C   UNL     1      24.008   0.548  53.035  1.00  0.00    +0.002 A 
ATOM     23  C   UNL     1      24.598   1.820  53.147  1.00  0.00    +0.010 A 
ATOM     24  C   UNL     1      24.849  -0.572  52.939  1.00  0.00    +0.030 A 
ATOM     25  C   UNL     1      25.987   1.971  53.139  1.00  0.00    +0.002 A 
ATOM     26  C   UNL     1      26.235  -0.418  52.931  1.00  0.00    +0.041 A 
ATOM     27  C   UNL     1      26.807   0.850  53.027  1.00  0.00    +0.020 A 
ATOM     28 Cl   UNL     1      27.249  -1.803  52.799  1.00  0.00    -0.084 Cl
ENDBRANCH  18  22
ENDBRANCH  10  12
ENDBRANCH   2  10
TORSDOF 8
ENDMDL
MODEL 5
REMARK VINA RESULT:    -7.063      3.494      6.422
REMARK INTER + INTRA:         -11.375
REMARK INTER:                 -10.522
REMARK INTRA:                  -0.853
REMARK UNBOUND:                -1.009
REMARK SMILES CCN(CC)CC/N=N/Nc1ccc2ncnc(-c3cccc(Cl)c3)c2c1
REMARK SMILES IDX 8 1 9 2 7 3 6 4 3 5 2 6 1 7 4 8 5 9 10 10 11 12 12 13 27 14
REMARK SMILES IDX 13 15 26 16 14 17 18 18 15 19 17 20 16 21 19 22 20 23 25 24
REMARK SMILES IDX 21 25 23 26 22 27 24 28
REMARK H PARENT 10 11
ROOT
ATOM      1  N   UNL     1      25.765  -0.828  55.017  1.00  0.00    -0.170 NA
ATOM      2  N   UNL     1      24.774  -0.202  54.599  1.00  0.00    -0.075 NA
ENDROOT
BRANCH   1   3
ATOM      3  C   UNL     1      26.572  -0.027  55.955  1.00  0.00    +0.184 C 
BRANCH   3   4
ATOM      4  C   UNL     1      28.002   0.107  55.406  1.00  0.00    +0.110 C 
BRANCH   4   5
ATOM      5  N   UNL     1      28.158   0.135  53.936  1.00  0.00    -0.302 NA
BRANCH   5   6
ATOM      6  C   UNL     1      29.515  -0.281  53.540  1.00  0.00    +0.081 C 
ATOM      7  C   UNL     1      29.657  -1.794  53.406  1.00  0.00    +0.021 C 
ENDBRANCH   5   6
BRANCH   5   8
ATOM      8  C   UNL     1      27.770   1.413  53.317  1.00  0.00    +0.081 C 
ATOM      9  C   UNL     1      28.757   2.548  53.575  1.00  0.00    +0.021 C 
ENDBRANCH   5   8
ENDBRANCH   4   5
ENDBRANCH   3   4
ENDBRANCH   1   3
BRANCH   2  10
ATOM     10  N   UNL     1      24.128  -1.048  53.777  1.00  0.00    -0.260 N 
ATOM     11  H   UNL     1      24.663  -1.344  52.967  1.00  0.00    +0.192 HD
BRANCH  10  12
ATOM     12  C   UNL     1      22.748  -0.883  53.574  1.00  0.00    +0.059 A 
ATOM     13  C   UNL     1      21.788  -1.557  54.326  1.00  0.00    +0.030 A 
ATOM     14  C   UNL     1      22.300  -0.106  52.500  1.00  0.00    +0.040 A 
ATOM     15  C   UNL     1      20.423  -1.404  54.050  1.00  0.00    +0.031 A 
ATOM     16  C   UNL     1      20.915   0.043  52.208  1.00  0.00    +0.029 A 
ATOM     17  C   UNL     1      19.969  -0.607  53.009  1.00  0.00    +0.074 A 
ATOM     18  C   UNL     1      20.372   0.813  51.164  1.00  0.00    +0.082 A 
ATOM     19  N   UNL     1      18.650  -0.499  52.813  1.00  0.00    -0.236 NA
ATOM     20  N   UNL     1      19.043   0.948  50.961  1.00  0.00    -0.236 NA
ATOM     21  C   UNL     1      18.250   0.278  51.801  1.00  0.00    +0.223 A 
BRANCH  18  22
ATOM     22  C   UNL     1      21.190   1.549  50.188  1.00  0.00    +0.002 A 
ATOM     23  C   UNL     1      21.389   1.057  48.885  1.00  0.00    +0.010 A 
ATOM     24  C   UNL     1      21.770   2.781  50.531  1.00  0.00    +0.030 A 
ATOM     25  C   UNL     1      22.164   1.761  47.961  1.00  0.00    +0.002 A 
ATOM     26  C   UNL     1      22.543   3.482  49.606  1.00  0.00    +0.041 A 
ATOM     27  C   UNL     1      22.746   2.975  48.324  1.00  0.00    +0.020 A 
ATOM     28 Cl   UNL     1      23.257   4.984  50.052  1.00  0.00    -0.084 Cl
ENDBRANCH  18  22
ENDBRANCH  10  12
ENDBRANCH   2  10
TORSDOF 8
ENDMDL
MODEL 6
REMARK VINA RESULT:    -7.042      3.230      5.779
REMARK INTER + INTRA:         -11.345
REMARK INTER:                  -9.610
REMARK INTRA:                  -1.735
REMARK UNBOUND:                -1.009
REMARK SMILES CCN(CC)CC/N=N/Nc1ccc2ncnc(-c3cccc(Cl)c3)c2c1
REMARK SMILES IDX 8 1 9 2 7 3 6 4 3 5 2 6 1 7 4 8 5 9 10 10 11 12 12 13 27 14
REMARK SMILES IDX 13 15 26 16 14 17 18 18 15 19 17 20 16 21 19 22 20 23 25 24
REMARK SMILES IDX 21 25 23 26 22 27 24 28
REMARK H PARENT 10 11
ROOT
ATOM      1  N   UNL     1      18.333  -0.647  52.561  1.00  0.00    -0.170 NA
ATOM      2  N   UNL     1      19.392  -0.054  52.835  1.00  0.00    -0.075 NA
ENDROOT
BRANCH   1   3
ATOM      3  C   UNL     1      17.701  -0.119  51.338  1.00  0.00    +0.184 C 
BRANCH   3   4
ATOM      4  C   UNL     1      18.753   0.638  50.511  1.00  0.00    +0.110 C 
BRANCH   4   5
ATOM      5  N   UNL     1      18.599   2.105  50.406  1.00  0.00    -0.302 NA
BRANCH   5   6
ATOM      6  C   UNL     1      19.888   2.789  50.611  1.00  0.00    +0.081 C 
ATOM      7  C   UNL     1      20.020   3.402  52.001  1.00  0.00    +0.021 C 
ENDBRANCH   5   6
BRANCH   5   8
ATOM      8  C   UNL     1      17.538   2.657  51.266  1.00  0.00    +0.081 C 
ATOM      9  C   UNL     1      16.414   3.343  50.494  1.00  0.00    +0.021 C 
ENDBRANCH   5   8
ENDBRANCH   4   5
ENDBRANCH   3   4
ENDBRANCH   1   3
BRANCH   2  10
ATOM     10  N   UNL     1      19.862  -0.644  53.949  1.00  0.00    -0.260 N 
ATOM     11  H   UNL     1      19.319  -0.462  54.786  1.00  0.00    +0.192 HD
BRANCH  10  12
ATOM     12  C   UNL     1      21.250  -0.752  54.130  1.00  0.00    +0.059 A 
ATOM     13  C   UNL     1      21.830  -1.686  54.987  1.00  0.00    +0.030 A 
ATOM     14  C   UNL     1      22.098   0.185  53.527  1.00  0.00    +0.040 A 
ATOM     15  C   UNL     1      23.217  -1.720  55.180  1.00  0.00    +0.031 A 
ATOM     16  C   UNL     1      23.506   0.162  53.729  1.00  0.00    +0.029 A 
ATOM     17  C   UNL     1      24.066  -0.817  54.557  1.00  0.00    +0.074 A 
ATOM     18  C   UNL     1      24.435   1.048  53.154  1.00  0.00    +0.082 A 
ATOM     19  N   UNL     1      25.382  -0.919  54.779  1.00  0.00    -0.236 NA
ATOM     20  N   UNL     1      25.768   0.951  53.353  1.00  0.00    -0.236 NA
ATOM     21  C   UNL     1      26.171  -0.032  54.162  1.00  0.00    +0.223 A 
BRANCH  18  22
ATOM     22  C   UNL     1      24.054   2.169  52.280  1.00  0.00    +0.002 A 
ATOM     23  C   UNL     1      23.944   3.478  52.781  1.00  0.00    +0.010 A 
ATOM     24  C   UNL     1      23.818   1.955  50.913  1.00  0.00    +0.030 A 
ATOM     25  C   UNL     1      23.585   4.539  51.946  1.00  0.00    +0.002 A 
ATOM     26  C   UNL     1      23.460   3.016  50.082  1.00  0.00    +0.041 A 
ATOM     27  C   UNL     1      23.339   4.307  50.594  1.00  0.00    +0.020 A 
ATOM     28 Cl   UNL     1      23.162   2.731  48.411  1.00  0.00    -0.084 Cl
ENDBRANCH  18  22
ENDBRANCH  10  12
ENDBRANCH   2  10
TORSDOF 8
ENDMDL
MODEL 7
REMARK VINA RESULT:    -6.975      2.972      5.244
REMARK INTER + INTRA:         -11.246
REMARK INTER:                  -9.968
REMARK INTRA:                  -1.278
REMARK UNBOUND:                -1.009
REMARK SMILES CCN(CC)CC/N=N/Nc1ccc2ncnc(-c3cccc(Cl)c3)c2c1
REMARK SMILES IDX 8 1 9 2 7 3 6 4 3 5 2 6 1 7 4 8 5 9 10 10 11 12 12 13 27 14
REMARK SMILES IDX 13 15 26 16 14 17 18 18 15 19 17 20 16 21 19 22 20 23 25 24
REMARK SMILES IDX 21 25 23 26 22 27 24 28
REMARK H PARENT 10 11
ROOT
ATOM      1  N   UNL     1      26.894   2.807  50.907  1.00  0.00    -0.170 NA
ATOM      2  N   UNL     1      25.872   2.248  51.342  1.00  0.00    -0.075 NA
ENDROOT
BRANCH   1   3
ATOM      3  C   UNL     1      26.621   3.595  49.691  1.00  0.00    +0.184 C 
BRANCH   3   4
ATOM      4  C   UNL     1      25.185   4.141  49.753  1.00  0.00    +0.110 C 
BRANCH   4   5
ATOM      5  N   UNL     1      24.976   5.400  50.501  1.00  0.00    -0.302 NA
BRANCH   5   6
ATOM      6  C   UNL     1      23.802   5.302  51.386  1.00  0.00    +0.081 C 
ATOM      7  C   UNL     1      22.947   4.072  51.102  1.00  0.00    +0.021 C 
ENDBRANCH   5   6
BRANCH   5   8
ATOM      8  C   UNL     1      24.925   6.600  49.649  1.00  0.00    +0.081 C 
ATOM      9  C   UNL     1      25.830   6.523  48.422  1.00  0.00    +0.021 C 
ENDBRANCH   5   8
ENDBRANCH   4   5
ENDBRANCH   3   4
ENDBRANCH   1   3
BRANCH   2  10
ATOM     10  N   UNL     1      26.260   1.589  52.448  1.00  0.00    -0.260 N 
ATOM     11  H   UNL     1      27.202   1.214  52.409  1.00  0.00    +0.192 HD
BRANCH  10  12
ATOM     12  C   UNL     1      25.321   0.813  53.146  1.00  0.00    +0.059 A 
ATOM     13  C   UNL     1      25.675  -0.054  54.179  1.00  0.00    +0.030 A 
ATOM     14  C   UNL     1      23.986   0.806  52.725  1.00  0.00    +0.040 A 
ATOM     15  C   UNL     1      24.710  -0.851  54.809  1.00  0.00    +0.031 A 
ATOM     16  C   UNL     1      23.005  -0.011  53.354  1.00  0.00    +0.029 A 
ATOM     17  C   UNL     1      23.379  -0.837  54.420  1.00  0.00    +0.074 A 
ATOM     18  C   UNL     1      21.642  -0.073  53.012  1.00  0.00    +0.082 A 
ATOM     19  N   UNL     1      22.512  -1.617  55.078  1.00  0.00    -0.236 NA
ATOM     20  N   UNL     1      20.750  -0.841  53.675  1.00  0.00    -0.236 NA
ATOM     21  C   UNL     1      21.236  -1.577  54.676  1.00  0.00    +0.223 A 
BRANCH  18  22
ATOM     22  C   UNL     1      21.049   0.689  51.902  1.00  0.00    +0.002 A 
ATOM     23  C   UNL     1      21.338   0.369  50.563  1.00  0.00    +0.010 A 
ATOM     24  C   UNL     1      20.155   1.740  52.160  1.00  0.00    +0.030 A 
ATOM     25  C   UNL     1      20.769   1.093  49.513  1.00  0.00    +0.002 A 
ATOM     26  C   UNL     1      19.589   2.461  51.109  1.00  0.00    +0.041 A 
ATOM     27  C   UNL     1      19.896   2.144  49.787  1.00  0.00    +0.020 A 
ATOM     28 Cl   UNL     1      18.505   3.755  51.446  1.00  0.00    -0.084 Cl
ENDBRANCH  18  22
ENDBRANCH  10  12
ENDBRANCH   2  10
TORSDOF 8
ENDMDL
MODEL 8
REMARK VINA RESULT:    -6.948      2.569      4.617
REMARK INTER + INTRA:         -11.206
REMARK INTER:                 -10.515
REMARK INTRA:                  -0.691
REMARK UNBOUND:                -1.009
REMARK SMILES CCN(CC)CC/N=N/Nc1ccc2ncnc(-c3cccc(Cl)c3)c2c1
REMARK SMILES IDX 8 1 9 2 7 3 6 4 3 5 2 6 1 7 4 8 5 9 10 10 11 12 12 13 27 14
REMARK SMILES IDX 13 15 26 16 14 17 18 18 15 19 17 20 16 21 19 22 20 23 25 24
REMARK SMILES IDX 21 25 23 26 22 27 24 28
REMARK H PARENT 10 11
ROOT
ATOM      1  N   UNL     1      28.284   6.273  48.398  1.00  0.00    -0.170 NA
ATOM      2  N   UNL     1      27.168   5.871  48.775  1.00  0.00    -0.075 NA
ENDROOT
BRANCH   1   3
ATOM      3  C   UNL     1      28.274   7.710  48.070  1.00  0.00    +0.184 C 
BRANCH   3   4
ATOM      4  C   UNL     1      29.649   8.315  48.400  1.00  0.00    +0.110 C 
BRANCH   4   5
ATOM      5  N   UNL     1      30.727   7.372  48.767  1.00  0.00    -0.302 NA
BRANCH   5   6
ATOM      6  C   UNL     1      31.401   7.795  50.007  1.00  0.00    +0.081 C 
ATOM      7  C   UNL     1      30.495   8.605  50.928  1.00  0.00    +0.021 C 
ENDBRANCH   5   6
BRANCH   5   8
ATOM      8  C   UNL     1      31.686   7.109  47.680  1.00  0.00    +0.081 C 
ATOM      9  C   UNL     1      31.688   5.661  47.198  1.00  0.00    +0.021 C 
ENDBRANCH   5   8
ENDBRANCH   4   5
ENDBRANCH   3   4
ENDBRANCH   1   3
BRANCH   2  10
ATOM     10  N   UNL     1      27.327   4.565  49.055  1.00  0.00    -0.260 N 
ATOM     11  H   UNL     1      27.899   4.056  48.389  1.00  0.00    +0.192 HD
BRANCH  10  12
ATOM     12  C   UNL     1      26.255   3.851  49.614  1.00  0.00    +0.059 A 
ATOM     13  C   UNL     1      24.923   4.124  49.306  1.00  0.00    +0.030 A 
ATOM     14  C   UNL     1      26.507   2.902  50.612  1.00  0.00    +0.040 A 
ATOM     15  C   UNL     1      23.884   3.422  49.931  1.00  0.00    +0.031 A 
ATOM     16  C   UNL     1      25.454   2.196  51.258  1.00  0.00    +0.029 A 
ATOM     17  C   UNL     1      24.127   2.456  50.896  1.00  0.00    +0.074 A 
ATOM     18  C   UNL     1      25.610   1.218  52.257  1.00  0.00    +0.082 A 
ATOM     19  N   UNL     1      23.085   1.818  51.440  1.00  0.00    -0.236 NA
ATOM     20  N   UNL     1      24.571   0.552  52.805  1.00  0.00    -0.236 NA
ATOM     21  C   UNL     1      23.357   0.892  52.367  1.00  0.00    +0.223 A 
BRANCH  18  22
ATOM     22  C   UNL     1      26.916   0.819  52.805  1.00  0.00    +0.002 A 
ATOM     23  C   UNL     1      27.765   1.757  53.420  1.00  0.00    +0.010 A 
ATOM     24  C   UNL     1      27.331  -0.521  52.749  1.00  0.00    +0.030 A 
ATOM     25  C   UNL     1      29.002   1.372  53.942  1.00  0.00    +0.002 A 
ATOM     26  C   UNL     1      28.567  -0.902  53.271  1.00  0.00    +0.041 A 
ATOM     27  C   UNL     1      29.406   0.040  53.863  1.00  0.00    +0.020 A 
ATOM     28 Cl   UNL     1      29.063  -2.548  53.180  1.00  0.00    -0.084 Cl
ENDBRANCH  18  22
ENDBRANCH  10  12
ENDBRANCH   2  10
TORSDOF 8
ENDMDL
MODEL 9
REMARK VINA RESULT:    -6.846      2.132      3.278
REMARK INTER + INTRA:         -11.057
REMARK INTER:                  -9.732
REMARK INTRA:                  -1.325
REMARK UNBOUND:                -1.009
REMARK SMILES CCN(CC)CC/N=N/Nc1ccc2ncnc(-c3cccc(Cl)c3)c2c1
REMARK SMILES IDX 8 1 9 2 7 3 6 4 3 5 2 6 1 7 4 8 5 9 10 10 11 12 12 13 27 14
REMARK SMILES IDX 13 15 26 16 14 17 18 18 15 19 17 20 16 21 19 22 20 23 25 24
REMARK SMILES IDX 21 25 23 26 22 27 24 28
REMARK H PARENT 10 11
ROOT
ATOM      1  N   UNL     1      21.629   3.389  48.580  1.00  0.00    -0.170 NA
ATOM      2  N   UNL     1      20.754   2.570  48.247  1.00  0.00    -0.075 NA
ENDROOT
BRANCH   1   3
ATOM      3  C   UNL     1      21.249   4.774  48.246  1.00  0.00    +0.184 C 
BRANCH   3   4
ATOM      4  C   UNL     1      21.832   5.728  49.302  1.00  0.00    +0.110 C 
BRANCH   4   5
ATOM      5  N   UNL     1      22.711   5.134  50.332  1.00  0.00    -0.302 NA
BRANCH   5   6
ATOM      6  C   UNL     1      22.109   5.250  51.672  1.00  0.00    +0.081 C 
ATOM      7  C   UNL     1      21.291   4.023  52.063  1.00  0.00    +0.021 C 
ENDBRANCH   5   6
BRANCH   5   8
ATOM      8  C   UNL     1      24.094   5.641  50.303  1.00  0.00    +0.081 C 
ATOM      9  C   UNL     1      24.875   5.228  49.059  1.00  0.00    +0.021 C 
ENDBRANCH   5   8
ENDBRANCH   4   5
ENDBRANCH   3   4
ENDBRANCH   1   3
BRANCH   2  10
ATOM     10  N   UNL     1      21.221   1.366  48.623  1.00  0.00    -0.260 N 
ATOM     11  H   UNL     1      21.206   0.659  47.896  1.00  0.00    +0.192 HD
BRANCH  10  12
ATOM     12  C   UNL     1      20.961   0.909  49.926  1.00  0.00    +0.059 A 
ATOM     13  C   UNL     1      19.671   0.781  50.438  1.00  0.00    +0.030 A 
ATOM     14  C   UNL     1      22.030   0.680  50.800  1.00  0.00    +0.040 A 
ATOM     15  C   UNL     1      19.462   0.375  51.763  1.00  0.00    +0.031 A 
ATOM     16  C   UNL     1      21.822   0.280  52.150  1.00  0.00    +0.029 A 
ATOM     17  C   UNL     1      20.516   0.113  52.625  1.00  0.00    +0.074 A 
ATOM     18  C   UNL     1      22.830   0.012  53.094  1.00  0.00    +0.082 A 
ATOM     19  N   UNL     1      20.239  -0.283  53.873  1.00  0.00    -0.236 NA
ATOM     20  N   UNL     1      22.570  -0.405  54.353  1.00  0.00    -0.236 NA
ATOM     21  C   UNL     1      21.281  -0.528  54.676  1.00  0.00    +0.223 A 
BRANCH  18  22
ATOM     22  C   UNL     1      24.266   0.158  52.811  1.00  0.00    +0.002 A 
ATOM     23  C   UNL     1      25.183  -0.851  53.157  1.00  0.00    +0.010 A 
ATOM     24  C   UNL     1      24.750   1.304  52.159  1.00  0.00    +0.030 A 
ATOM     25  C   UNL     1      26.545  -0.710  52.883  1.00  0.00    +0.002 A 
ATOM     26  C   UNL     1      26.111   1.442  51.887  1.00  0.00    +0.041 A 
ATOM     27  C   UNL     1      27.010   0.441  52.250  1.00  0.00    +0.020 A 
ATOM     28 Cl   UNL     1      26.685   2.861  51.100  1.00  0.00    -0.084 Cl
ENDBRANCH  18  22
ENDBRANCH  10  12
ENDBRANCH   2  10
TORSDOF 8
ENDMDL
