MODEL 1
REMARK VINA RESULT:    -7.483      0.000      0.000
REMARK INTER + INTRA:         -10.527
REMARK INTER:                  -9.233
REMARK INTRA:                  -1.293
REMARK UNBOUND:                -1.293
REMARK SMILES Cc1cc(C)c(N(C(=O)c2ccccn2)c2cccc(Cl)c2)[nH]1
REMARK SMILES IDX 7 1 6 2 2 3 3 4 23 5 4 6 1 7 5 9 8 10 9 11 10 12 11 13 15 14
REMARK SMILES IDX 12 15 14 16 13 17 16 18 17 19 22 20 18 21 20 22 19 23 21 24
REMARK H PARENT 23 8
ROOT
ATOM      1  N   UNL     1      24.441   2.604  51.828  1.00  0.00    -0.261 N 
ENDROOT
BRANCH   1   2
ATOM      2  C   UNL     1      24.698   3.819  51.170  1.00  0.00    +0.120 A 
ATOM      3  C   UNL     1      24.501   6.035  50.770  1.00  0.00    +0.014 A 
ATOM      4  C   UNL     1      25.424   5.532  49.881  1.00  0.00    +0.028 A 
ATOM      5  N   UNL     1      24.110   4.998  51.575  1.00  0.00    -0.345 N 
ATOM      6  C   UNL     1      25.587   4.141  50.148  1.00  0.00    -0.008 A 
ATOM      7  C   UNL     1      23.964   7.405  50.952  1.00  0.00    +0.064 C 
ATOM      8  H   UNL     1      23.433   5.049  52.329  1.00  0.00    +0.168 HD
ATOM      9  C   UNL     1      26.577   3.258  49.471  1.00  0.00    +0.048 C 
ENDBRANCH   1   2
BRANCH   1  10
ATOM     10  C   UNL     1      25.030   2.451  53.098  1.00  0.00    +0.282 C 
ATOM     11  O   UNL     1      24.821   3.214  54.047  1.00  0.00    -0.266 OA
BRANCH  10  12
ATOM     12  C   UNL     1      26.078   1.384  53.238  1.00  0.00    +0.129 A 
ATOM     13  C   UNL     1      26.163   0.387  52.271  1.00  0.00    +0.034 A 
ATOM     14  N   UNL     1      26.891   1.431  54.328  1.00  0.00    -0.251 NA
ATOM     15  C   UNL     1      27.127  -0.606  52.423  1.00  0.00    +0.004 A 
ATOM     16  C   UNL     1      27.811   0.451  54.448  1.00  0.00    +0.112 A 
ATOM     17  C   UNL     1      27.967  -0.576  53.531  1.00  0.00    +0.020 A 
ENDBRANCH  10  12
ENDBRANCH   1  10
BRANCH   1  18
ATOM     18  C   UNL     1      23.239   1.869  51.487  1.00  0.00    +0.052 A 
ATOM     19  C   UNL     1      22.783   1.797  50.157  1.00  0.00    +0.027 A 
ATOM     20  C   UNL     1      22.512   1.133  52.441  1.00  0.00    +0.047 A 
ATOM     21  C   UNL     1      21.635   1.074  49.805  1.00  0.00    +0.004 A 
ATOM     22  C   UNL     1      21.366   0.412  52.090  1.00  0.00    +0.043 A 
ATOM     23  C   UNL     1      20.920   0.385  50.776  1.00  0.00    +0.020 A 
ATOM     24 Cl   UNL     1      20.505  -0.464  53.297  1.00  0.00    -0.084 Cl
ENDBRANCH   1  18
TORSDOF 4
ENDMDL
MODEL 2
REMARK VINA RESULT:    -7.315      2.301      5.848
REMARK INTER + INTRA:         -10.319
REMARK INTER:                  -9.420
REMARK INTRA:                  -0.899
REMARK UNBOUND:                -1.293
REMARK SMILES Cc1cc(C)c(N(C(=O)c2ccccn2)c2cccc(Cl)c2)[nH]1
REMARK SMILES IDX 7 1 6 2 2 3 3 4 23 5 4 6 1 7 5 9 8 10 9 11 10 12 11 13 15 14
REMARK SMILES IDX 12 15 14 16 13 17 16 18 17 19 22 20 18 21 20 22 19 23 21 24
REMARK H PARENT 23 8
ROOT
ATOM      1  N   UNL     1      24.768   1.412  52.425  1.00  0.00    -0.261 N 
ENDROOT
BRANCH   1   2
ATOM      2  C   UNL     1      23.525   0.756  52.482  1.00  0.00    +0.120 A 
ATOM      3  C   UNL     1      21.889  -0.494  53.416  1.00  0.00    +0.014 A 
ATOM      4  C   UNL     1      21.451  -0.095  52.172  1.00  0.00    +0.028 A 
ATOM      5  N   UNL     1      23.122   0.072  53.608  1.00  0.00    -0.345 N 
ATOM      6  C   UNL     1      22.459   0.727  51.588  1.00  0.00    -0.008 A 
ATOM      7  C   UNL     1      21.251  -1.339  54.453  1.00  0.00    +0.064 C 
ATOM      8  H   UNL     1      23.708  -0.038  54.430  1.00  0.00    +0.168 HD
ATOM      9  C   UNL     1      22.321   1.442  50.289  1.00  0.00    +0.048 C 
ENDBRANCH   1   2
BRANCH   1  10
ATOM     10  C   UNL     1      24.733   2.815  52.535  1.00  0.00    +0.282 C 
ATOM     11  O   UNL     1      24.324   3.414  53.535  1.00  0.00    -0.266 OA
BRANCH  10  12
ATOM     12  C   UNL     1      25.078   3.604  51.304  1.00  0.00    +0.129 A 
ATOM     13  C   UNL     1      26.203   3.249  50.566  1.00  0.00    +0.034 A 
ATOM     14  N   UNL     1      24.276   4.652  50.976  1.00  0.00    -0.251 NA
ATOM     15  C   UNL     1      26.521   4.000  49.437  1.00  0.00    +0.004 A 
ATOM     16  C   UNL     1      24.615   5.363  49.880  1.00  0.00    +0.112 A 
ATOM     17  C   UNL     1      25.714   5.077  49.086  1.00  0.00    +0.020 A 
ENDBRANCH  10  12
ENDBRANCH   1  10
BRANCH   1  18
ATOM     18  C   UNL     1      25.958   0.677  52.803  1.00  0.00    +0.052 A 
ATOM     19  C   UNL     1      26.134  -0.668  52.428  1.00  0.00    +0.027 A 
ATOM     20  C   UNL     1      27.026   1.282  53.494  1.00  0.00    +0.047 A 
ATOM     21  C   UNL     1      27.288  -1.388  52.768  1.00  0.00    +0.004 A 
ATOM     22  C   UNL     1      28.178   0.564  53.833  1.00  0.00    +0.043 A 
ATOM     23  C   UNL     1      28.311  -0.772  53.478  1.00  0.00    +0.020 A 
ATOM     24 Cl   UNL     1      29.451   1.347  54.687  1.00  0.00    -0.084 Cl
ENDBRANCH   1  18
TORSDOF 4
ENDMDL
MODEL 3
REMARK VINA RESULT:    -7.173      2.836      6.374
REMARK INTER + INTRA:         -10.144
REMARK INTER:                  -9.218
REMARK INTRA:                  -0.925
REMARK UNBOUND:                -1.293
REMARK SMILES Cc1cc(C)c(N(C(=O)c2ccccn2)c2cccc(Cl)c2)[nH]1
REMARK SMILES IDX 7 1 6 2 2 3 3 4 23 5 4 6 1 7 5 9 8 10 9 11 10 12 11 13 15 14
REMARK SMILES IDX 12 15 14 16 13 17 16 18 17 19 22 20 18 21 20 22 19 23 21 24
REMARK H PARENT 23 8
ROOT
ATOM      1  N   UNL     1      24.724   0.330  52.917  1.00  0.00    -0.261 N 
ENDROOT
BRANCH   1   2
ATOM      2  C   UNL     1      23.637  -0.217  53.619  1.00  0.00    +0.120 A 
ATOM      3  C   UNL     1      21.496  -0.875  53.928  1.00  0.00    +0.014 A 
ATOM      4  C   UNL     1      22.199  -1.198  55.067  1.00  0.00    +0.028 A 
ATOM      5  N   UNL     1      22.389  -0.330  53.044  1.00  0.00    -0.345 N 
ATOM      6  C   UNL     1      23.561  -0.823  54.870  1.00  0.00    -0.008 A 
ATOM      7  C   UNL     1      20.065  -1.049  53.580  1.00  0.00    +0.064 C 
ATOM      8  H   UNL     1      22.175   0.012  52.113  1.00  0.00    +0.168 HD
ATOM      9  C   UNL     1      24.664  -1.103  55.830  1.00  0.00    +0.048 C 
ENDBRANCH   1   2
BRANCH   1  10
ATOM     10  C   UNL     1      24.677   1.718  52.687  1.00  0.00    +0.282 C 
ATOM     11  O   UNL     1      24.864   2.566  53.566  1.00  0.00    -0.266 OA
BRANCH  10  12
ATOM     12  C   UNL     1      24.229   2.168  51.325  1.00  0.00    +0.129 A 
ATOM     13  C   UNL     1      25.014   3.076  50.620  1.00  0.00    +0.034 A 
ATOM     14  N   UNL     1      23.053   1.679  50.850  1.00  0.00    -0.251 NA
ATOM     15  C   UNL     1      24.577   3.499  49.367  1.00  0.00    +0.004 A 
ATOM     16  C   UNL     1      22.655   2.113  49.635  1.00  0.00    +0.112 A 
ATOM     17  C   UNL     1      23.376   3.010  48.864  1.00  0.00    +0.020 A 
ENDBRANCH  10  12
ENDBRANCH   1  10
BRANCH   1  18
ATOM     18  C   UNL     1      25.997  -0.362  52.958  1.00  0.00    +0.052 A 
ATOM     19  C   UNL     1      26.113  -1.699  52.534  1.00  0.00    +0.027 A 
ATOM     20  C   UNL     1      27.188   0.280  53.349  1.00  0.00    +0.047 A 
ATOM     21  C   UNL     1      27.340  -2.377  52.547  1.00  0.00    +0.004 A 
ATOM     22  C   UNL     1      28.412  -0.397  53.363  1.00  0.00    +0.043 A 
ATOM     23  C   UNL     1      28.492  -1.726  52.970  1.00  0.00    +0.020 A 
ATOM     24 Cl   UNL     1      29.839   0.429  53.860  1.00  0.00    -0.084 Cl
ENDBRANCH   1  18
TORSDOF 4
ENDMDL
MODEL 4
REMARK VINA RESULT:    -7.000      1.790      5.129
REMARK INTER + INTRA:          -9.930
REMARK INTER:                  -9.053
REMARK INTRA:                  -0.877
REMARK UNBOUND:                -1.293
REMARK SMILES Cc1cc(C)c(N(C(=O)c2ccccn2)c2cccc(Cl)c2)[nH]1
REMARK SMILES IDX 7 1 6 2 2 3 3 4 23 5 4 6 1 7 5 9 8 10 9 11 10 12 11 13 15 14
REMARK SMILES IDX 12 15 14 16 13 17 16 18 17 19 22 20 18 21 20 22 19 23 21 24
REMARK H PARENT 23 8
ROOT
ATOM      1  N   UNL     1      24.038   2.042  51.420  1.00  0.00    -0.261 N 
ENDROOT
BRANCH   1   2
ATOM      2  C   UNL     1      22.799   1.663  50.875  1.00  0.00    +0.120 A 
ATOM      3  C   UNL     1      20.688   0.853  50.906  1.00  0.00    +0.014 A 
ATOM      4  C   UNL     1      20.968   1.237  49.614  1.00  0.00    +0.028 A 
ATOM      5  N   UNL     1      21.785   1.165  51.665  1.00  0.00    -0.345 N 
ATOM      6  C   UNL     1      22.284   1.786  49.588  1.00  0.00    -0.008 A 
ATOM      7  C   UNL     1      19.478   0.240  51.504  1.00  0.00    +0.064 C 
ATOM      8  H   UNL     1      21.889   1.000  52.661  1.00  0.00    +0.168 HD
ATOM      9  C   UNL     1      22.917   2.413  48.394  1.00  0.00    +0.048 C 
ENDBRANCH   1   2
BRANCH   1  10
ATOM     10  C   UNL     1      24.192   3.409  51.718  1.00  0.00    +0.282 C 
ATOM     11  O   UNL     1      23.729   3.947  52.730  1.00  0.00    -0.266 OA
BRANCH  10  12
ATOM     12  C   UNL     1      24.827   4.269  50.662  1.00  0.00    +0.129 A 
ATOM     13  C   UNL     1      26.028   3.861  50.089  1.00  0.00    +0.034 A 
ATOM     14  N   UNL     1      24.203   5.430  50.328  1.00  0.00    -0.251 NA
ATOM     15  C   UNL     1      26.615   4.676  49.125  1.00  0.00    +0.004 A 
ATOM     16  C   UNL     1      24.801   6.200  49.395  1.00  0.00    +0.112 A 
ATOM     17  C   UNL     1      25.993   5.868  48.771  1.00  0.00    +0.020 A 
ENDBRANCH  10  12
ENDBRANCH   1  10
BRANCH   1  18
ATOM     18  C   UNL     1      24.819   1.047  52.128  1.00  0.00    +0.052 A 
ATOM     19  C   UNL     1      26.120   0.710  51.711  1.00  0.00    +0.027 A 
ATOM     20  C   UNL     1      24.353   0.424  53.302  1.00  0.00    +0.047 A 
ATOM     21  C   UNL     1      26.897  -0.234  52.396  1.00  0.00    +0.004 A 
ATOM     22  C   UNL     1      25.128  -0.519  53.985  1.00  0.00    +0.043 A 
ATOM     23  C   UNL     1      26.397  -0.856  53.533  1.00  0.00    +0.020 A 
ATOM     24 Cl   UNL     1      24.510  -1.261  55.410  1.00  0.00    -0.084 Cl
ENDBRANCH   1  18
TORSDOF 4
ENDMDL
MODEL 5
REMARK VINA RESULT:    -6.831      2.383      4.741
REMARK INTER + INTRA:          -9.722
REMARK INTER:                  -8.960
REMARK INTRA:                  -0.761
REMARK UNBOUND:                -1.293
REMARK SMILES Cc1cc(C)c(N(C(=O)c2ccccn2)c2cccc(Cl)c2)[nH]1
REMARK SMILES IDX 7 1 6 2 2 3 3 4 23 5 4 6 1 7 5 9 8 10 9 11 10 12 11 13 15 14
REMARK SMILES IDX 12 15 14 16 13 17 16 18 17 19 22 20 18 21 20 22 19 23 21 24
REMARK H PARENT 23 8
ROOT
ATOM      1  N   UNL     1      24.342   1.855  52.157  1.00  0.00    -0.261 N 
ENDROOT
BRANCH   1   2
ATOM      2  C   UNL     1      24.607   3.074  51.510  1.00  0.00    +0.120 A 
ATOM      3  C   UNL     1      25.628   4.453  50.038  1.00  0.00    +0.014 A 
ATOM      4  C   UNL     1      24.680   5.191  50.711  1.00  0.00    +0.028 A 
ATOM      5  N   UNL     1      25.536   3.165  50.495  1.00  0.00    -0.345 N 
ATOM      6  C   UNL     1      24.001   4.323  51.616  1.00  0.00    -0.008 A 
ATOM      7  C   UNL     1      26.600   4.837  48.986  1.00  0.00    +0.064 C 
ATOM      8  H   UNL     1      26.106   2.383  50.194  1.00  0.00    +0.168 HD
ATOM      9  C   UNL     1      22.833   4.716  52.452  1.00  0.00    +0.048 C 
ENDBRANCH   1   2
BRANCH   1  10
ATOM     10  C   UNL     1      23.199   1.158  51.721  1.00  0.00    +0.282 C 
ATOM     11  O   UNL     1      22.762   1.211  50.567  1.00  0.00    -0.266 OA
BRANCH  10  12
ATOM     12  C   UNL     1      22.400   0.437  52.770  1.00  0.00    +0.129 A 
ATOM     13  C   UNL     1      22.740  -0.873  53.097  1.00  0.00    +0.034 A 
ATOM     14  N   UNL     1      21.357   1.097  53.340  1.00  0.00    -0.251 NA
ATOM     15  C   UNL     1      21.980  -1.536  54.057  1.00  0.00    +0.004 A 
ATOM     16  C   UNL     1      20.637   0.425  54.263  1.00  0.00    +0.112 A 
ATOM     17  C   UNL     1      20.908  -0.877  54.651  1.00  0.00    +0.020 A 
ENDBRANCH  10  12
ENDBRANCH   1  10
BRANCH   1  18
ATOM     18  C   UNL     1      25.443   1.142  52.772  1.00  0.00    +0.052 A 
ATOM     19  C   UNL     1      26.152   1.691  53.858  1.00  0.00    +0.027 A 
ATOM     20  C   UNL     1      25.813  -0.157  52.373  1.00  0.00    +0.047 A 
ATOM     21  C   UNL     1      27.206   1.007  54.478  1.00  0.00    +0.004 A 
ATOM     22  C   UNL     1      26.865  -0.840  52.992  1.00  0.00    +0.043 A 
ATOM     23  C   UNL     1      27.569  -0.260  54.040  1.00  0.00    +0.020 A 
ATOM     24 Cl   UNL     1      27.286  -2.422  52.460  1.00  0.00    -0.084 Cl
ENDBRANCH   1  18
TORSDOF 4
ENDMDL
MODEL 6
REMARK VINA RESULT:    -6.807      2.494      4.526
REMARK INTER + INTRA:          -9.693
REMARK INTER:                  -8.309
REMARK INTRA:                  -1.383
REMARK UNBOUND:                -1.293
REMARK SMILES Cc1cc(C)c(N(C(=O)c2ccccn2)c2cccc(Cl)c2)[nH]1
REMARK SMILES IDX 7 1 6 2 2 3 3 4 23 5 4 6 1 7 5 9 8 10 9 11 10 12 11 13 15 14
REMARK SMILES IDX 12 15 14 16 13 17 16 18 17 19 22 20 18 21 20 22 19 23 21 24
REMARK H PARENT 23 8
ROOT
ATOM      1  N   UNL     1      22.781   2.726  51.435  1.00  0.00    -0.261 N 
ENDROOT
BRANCH   1   2
ATOM      2  C   UNL     1      21.628   2.929  50.657  1.00  0.00    +0.120 A 
ATOM      3  C   UNL     1      19.662   3.889  50.088  1.00  0.00    +0.014 A 
ATOM      4  C   UNL     1      19.965   2.957  49.121  1.00  0.00    +0.028 A 
ATOM      5  N   UNL     1      20.701   3.897  50.981  1.00  0.00    -0.345 N 
ATOM      6  C   UNL     1      21.223   2.371  49.448  1.00  0.00    -0.008 A 
ATOM      7  C   UNL     1      18.497   4.793  50.244  1.00  0.00    +0.064 C 
ATOM      8  H   UNL     1      20.771   4.476  51.811  1.00  0.00    +0.168 HD
ATOM      9  C   UNL     1      21.950   1.393  48.592  1.00  0.00    +0.048 C 
ENDBRANCH   1   2
BRANCH   1  10
ATOM     10  C   UNL     1      23.541   3.874  51.726  1.00  0.00    +0.282 C 
ATOM     11  O   UNL     1      23.278   4.656  52.646  1.00  0.00    -0.266 OA
BRANCH  10  12
ATOM     12  C   UNL     1      24.639   4.227  50.763  1.00  0.00    +0.129 A 
ATOM     13  C   UNL     1      25.484   3.222  50.302  1.00  0.00    +0.034 A 
ATOM     14  N   UNL     1      24.769   5.531  50.398  1.00  0.00    -0.251 NA
ATOM     15  C   UNL     1      26.508   3.567  49.423  1.00  0.00    +0.004 A 
ATOM     16  C   UNL     1      25.774   5.832  49.550  1.00  0.00    +0.112 A 
ATOM     17  C   UNL     1      26.658   4.895  49.040  1.00  0.00    +0.020 A 
ENDBRANCH  10  12
ENDBRANCH   1  10
BRANCH   1  18
ATOM     18  C   UNL     1      22.835   1.572  52.310  1.00  0.00    +0.052 A 
ATOM     19  C   UNL     1      21.658   0.973  52.798  1.00  0.00    +0.027 A 
ATOM     20  C   UNL     1      24.048   0.947  52.655  1.00  0.00    +0.047 A 
ATOM     21  C   UNL     1      21.690  -0.156  53.628  1.00  0.00    +0.004 A 
ATOM     22  C   UNL     1      24.080  -0.180  53.483  1.00  0.00    +0.043 A 
ATOM     23  C   UNL     1      22.905  -0.731  53.978  1.00  0.00    +0.020 A 
ATOM     24 Cl   UNL     1      25.591  -0.902  53.885  1.00  0.00    -0.084 Cl
ENDBRANCH   1  18
TORSDOF 4
ENDMDL
MODEL 7
REMARK VINA RESULT:    -6.775      2.250      5.045
REMARK INTER + INTRA:          -9.652
REMARK INTER:                  -8.264
REMARK INTRA:                  -1.388
REMARK UNBOUND:                -1.293
REMARK SMILES Cc1cc(C)c(N(C(=O)c2ccccn2)c2cccc(Cl)c2)[nH]1
REMARK SMILES IDX 7 1 6 2 2 3 3 4 23 5 4 6 1 7 5 9 8 10 9 11 10 12 11 13 15 14
REMARK SMILES IDX 12 15 14 16 13 17 16 18 17 19 22 20 18 21 20 22 19 23 21 24
REMARK H PARENT 23 8
ROOT
ATOM      1  N   UNL     1      22.833   2.618  51.941  1.00  0.00    -0.261 N 
ENDROOT
BRANCH   1   2
ATOM      2  C   UNL     1      23.128   1.422  52.618  1.00  0.00    +0.120 A 
ATOM      3  C   UNL     1      24.453  -0.217  53.437  1.00  0.00    +0.014 A 
ATOM      4  C   UNL     1      23.160  -0.499  53.816  1.00  0.00    +0.028 A 
ATOM      5  N   UNL     1      24.424   0.973  52.759  1.00  0.00    -0.345 N 
ATOM      6  C   UNL     1      22.318   0.548  53.339  1.00  0.00    -0.008 A 
ATOM      7  C   UNL     1      25.722  -0.948  53.670  1.00  0.00    +0.064 C 
ATOM      8  H   UNL     1      25.221   1.446  52.348  1.00  0.00    +0.168 HD
ATOM      9  C   UNL     1      20.863   0.667  53.634  1.00  0.00    +0.048 C 
ENDBRANCH   1   2
BRANCH   1  10
ATOM     10  C   UNL     1      23.717   3.690  52.164  1.00  0.00    +0.282 C 
ATOM     11  O   UNL     1      23.617   4.475  53.114  1.00  0.00    -0.266 OA
BRANCH  10  12
ATOM     12  C   UNL     1      24.738   3.964  51.097  1.00  0.00    +0.129 A 
ATOM     13  C   UNL     1      24.661   5.151  50.375  1.00  0.00    +0.034 A 
ATOM     14  N   UNL     1      25.688   3.018  50.869  1.00  0.00    -0.251 NA
ATOM     15  C   UNL     1      25.603   5.384  49.377  1.00  0.00    +0.004 A 
ATOM     16  C   UNL     1      26.583   3.272  49.891  1.00  0.00    +0.112 A 
ATOM     17  C   UNL     1      26.582   4.428  49.128  1.00  0.00    +0.020 A 
ENDBRANCH  10  12
ENDBRANCH   1  10
BRANCH   1  18
ATOM     18  C   UNL     1      22.059   2.550  50.717  1.00  0.00    +0.052 A 
ATOM     19  C   UNL     1      22.227   1.489  49.808  1.00  0.00    +0.027 A 
ATOM     20  C   UNL     1      21.056   3.489  50.410  1.00  0.00    +0.047 A 
ATOM     21  C   UNL     1      21.472   1.395  48.630  1.00  0.00    +0.004 A 
ATOM     22  C   UNL     1      20.304   3.397  49.234  1.00  0.00    +0.043 A 
ATOM     23  C   UNL     1      20.513   2.357  48.338  1.00  0.00    +0.020 A 
ATOM     24 Cl   UNL     1      19.096   4.577  48.899  1.00  0.00    -0.084 Cl
ENDBRANCH   1  18
TORSDOF 4
ENDMDL
MODEL 8
REMARK VINA RESULT:    -6.755      1.348      1.995
REMARK INTER + INTRA:          -9.628
REMARK INTER:                  -9.019
REMARK INTRA:                  -0.609
REMARK UNBOUND:                -1.293
REMARK SMILES Cc1cc(C)c(N(C(=O)c2ccccn2)c2cccc(Cl)c2)[nH]1
REMARK SMILES IDX 7 1 6 2 2 3 3 4 23 5 4 6 1 7 5 9 8 10 9 11 10 12 11 13 15 14
REMARK SMILES IDX 12 15 14 16 13 17 16 18 17 19 22 20 18 21 20 22 19 23 21 24
REMARK H PARENT 23 8
ROOT
ATOM      1  N   UNL     1      24.153   1.913  52.360  1.00  0.00    -0.261 N 
ENDROOT
BRANCH   1   2
ATOM      2  C   UNL     1      24.241   2.682  51.186  1.00  0.00    +0.120 A 
ATOM      3  C   UNL     1      25.084   4.268  49.813  1.00  0.00    +0.014 A 
ATOM      4  C   UNL     1      24.061   3.637  49.142  1.00  0.00    +0.028 A 
ATOM      5  N   UNL     1      25.215   3.645  51.026  1.00  0.00    -0.345 N 
ATOM      6  C   UNL     1      23.546   2.608  49.983  1.00  0.00    -0.008 A 
ATOM      7  C   UNL     1      25.970   5.389  49.416  1.00  0.00    +0.064 C 
ATOM      8  H   UNL     1      25.882   3.885  51.752  1.00  0.00    +0.168 HD
ATOM      9  C   UNL     1      22.499   1.628  49.579  1.00  0.00    +0.048 C 
ENDBRANCH   1   2
BRANCH   1  10
ATOM     10  C   UNL     1      25.172   2.114  53.310  1.00  0.00    +0.282 C 
ATOM     11  O   UNL     1      25.288   3.143  53.984  1.00  0.00    -0.266 OA
BRANCH  10  12
ATOM     12  C   UNL     1      26.250   1.070  53.384  1.00  0.00    +0.129 A 
ATOM     13  C   UNL     1      26.255   0.036  52.452  1.00  0.00    +0.034 A 
ATOM     14  N   UNL     1      27.167   1.173  54.382  1.00  0.00    -0.251 NA
ATOM     15  C   UNL     1      27.249  -0.935  52.543  1.00  0.00    +0.004 A 
ATOM     16  C   UNL     1      28.114   0.213  54.446  1.00  0.00    +0.112 A 
ATOM     17  C   UNL     1      28.196  -0.847  53.558  1.00  0.00    +0.020 A 
ENDBRANCH  10  12
ENDBRANCH   1  10
BRANCH   1  18
ATOM     18  C   UNL     1      22.853   1.426  52.774  1.00  0.00    +0.052 A 
ATOM     19  C   UNL     1      21.697   2.215  52.623  1.00  0.00    +0.027 A 
ATOM     20  C   UNL     1      22.664   0.124  53.275  1.00  0.00    +0.047 A 
ATOM     21  C   UNL     1      20.428   1.752  52.998  1.00  0.00    +0.004 A 
ATOM     22  C   UNL     1      21.398  -0.339  53.650  1.00  0.00    +0.043 A 
ATOM     23  C   UNL     1      20.279   0.473  53.520  1.00  0.00    +0.020 A 
ATOM     24 Cl   UNL     1      21.221  -1.937  54.267  1.00  0.00    -0.084 Cl
ENDBRANCH   1  18
TORSDOF 4
ENDMDL
MODEL 9
REMARK VINA RESULT:    -6.679      2.504      4.537
REMARK INTER + INTRA:          -9.535
REMARK INTER:                  -9.040
REMARK INTRA:                  -0.494
REMARK UNBOUND:                -1.293
REMARK SMILES Cc1cc(C)c(N(C(=O)c2ccccn2)c2cccc(Cl)c2)[nH]1
REMARK SMILES IDX 7 1 6 2 2 3 3 4 23 5 4 6 1 7 5 9 8 10 9 11 10 12 11 13 15 14
REMARK SMILES IDX 12 15 14 16 13 17 16 18 17 19 22 20 18 21 20 22 19 23 21 24
REMARK H PARENT 23 8
ROOT
ATOM      1  N   UNL     1      24.575   2.153  51.883  1.00  0.00    -0.261 N 
ENDROOT
BRANCH   1   2
ATOM      2  C   UNL     1      24.723   3.415  51.279  1.00  0.00    +0.120 A 
ATOM      3  C   UNL     1      24.367   5.631  51.009  1.00  0.00    +0.014 A 
ATOM      4  C   UNL     1      25.277   5.235  50.053  1.00  0.00    +0.028 A 
ATOM      5  N   UNL     1      24.082   4.531  51.774  1.00  0.00    -0.345 N 
ATOM      6  C   UNL     1      25.539   3.846  50.238  1.00  0.00    -0.008 A 
ATOM      7  C   UNL     1      23.755   6.952  51.288  1.00  0.00    +0.064 C 
ATOM      8  H   UNL     1      23.441   4.499  52.559  1.00  0.00    +0.168 HD
ATOM      9  C   UNL     1      26.549   3.065  49.470  1.00  0.00    +0.048 C 
ENDBRANCH   1   2
BRANCH   1  10
ATOM     10  C   UNL     1      23.420   1.430  51.529  1.00  0.00    +0.282 C 
ATOM     11  O   UNL     1      22.951   1.403  50.387  1.00  0.00    -0.266 OA
BRANCH  10  12
ATOM     12  C   UNL     1      22.652   0.784  52.648  1.00  0.00    +0.129 A 
ATOM     13  C   UNL     1      23.098  -0.431  53.161  1.00  0.00    +0.034 A 
ATOM     14  N   UNL     1      21.533   1.412  53.096  1.00  0.00    -0.251 NA
ATOM     15  C   UNL     1      22.366  -1.027  54.185  1.00  0.00    +0.004 A 
ATOM     16  C   UNL     1      20.844   0.805  54.084  1.00  0.00    +0.112 A 
ATOM     17  C   UNL     1      21.218  -0.400  54.656  1.00  0.00    +0.020 A 
ENDBRANCH  10  12
ENDBRANCH   1  10
BRANCH   1  18
ATOM     18  C   UNL     1      25.761   1.460  52.342  1.00  0.00    +0.052 A 
ATOM     19  C   UNL     1      25.977   0.103  52.033  1.00  0.00    +0.027 A 
ATOM     20  C   UNL     1      26.788   2.115  53.048  1.00  0.00    +0.047 A 
ATOM     21  C   UNL     1      27.129  -0.578  52.450  1.00  0.00    +0.004 A 
ATOM     22  C   UNL     1      27.937   1.435  53.465  1.00  0.00    +0.043 A 
ATOM     23  C   UNL     1      28.110   0.088  53.175  1.00  0.00    +0.020 A 
ATOM     24 Cl   UNL     1      29.160   2.279  54.336  1.00  0.00    -0.084 Cl
ENDBRANCH   1  18
TORSDOF 4
ENDMDL
