REMARK SMILES COc1cc(C)c(C=C(N)C(C#N)=C(C#N)C#N)[nH]1
REMARK SMILES IDX 3 1 4 2 5 3 6 4 7 5 19 6 2 8 1 9 8 10 9 11 10 12 11 15 12 16
REMARK SMILES IDX 14 17 13 18 15 19 17 20 16 21 18 22
REMARK H PARENT 19 7 10 13 10 14
ROOT
ATOM      1  C   UNL     1       2.631   0.724  -0.092  1.00  0.00    +0.191 A 
ATOM      2  C   UNL     1       2.658  -0.615  -0.426  1.00  0.00    +0.071 A 
ATOM      3  C   UNL     1       1.364  -1.162  -0.185  1.00  0.00    -0.022 A 
ATOM      4  C   UNL     1       0.966  -2.581  -0.393  1.00  0.00    +0.047 C 
ATOM      5  C   UNL     1       0.574  -0.122   0.280  1.00  0.00    +0.046 A 
ATOM      6  N   UNL     1       1.362   1.001   0.347  1.00  0.00    -0.326 N 
ATOM      7  H   UNL     1       1.067   1.921   0.643  1.00  0.00    +0.170 HD
ENDROOT
BRANCH   1   8
ATOM      8  O   UNL     1       3.523   1.714  -0.108  1.00  0.00    -0.482 OA
ATOM      9  C   UNL     1       4.825   1.363  -0.565  1.00  0.00    +0.280 C 
ENDBRANCH   1   8
BRANCH   5  10
ATOM     10  C   UNL     1      -0.777  -0.005   0.688  1.00  0.00    +0.053 C 
ATOM     11  C   UNL     1      -1.813  -0.272  -0.137  1.00  0.00    +0.054 C 
BRANCH  11  12
ATOM     12  N   UNL     1      -1.691  -0.663  -1.458  1.00  0.00    -0.398 N 
ATOM     13  H   UNL     1      -2.386  -0.288  -2.097  1.00  0.00    +0.156 HD
ATOM     14  H   UNL     1      -0.745  -0.531  -1.823  1.00  0.00    +0.156 HD
ENDBRANCH  11  12
BRANCH  11  15
ATOM     15  C   UNL     1      -3.180  -0.122   0.377  1.00  0.00    +0.103 C 
ATOM     16  C   UNL     1      -3.837  -1.335   0.760  1.00  0.00    +0.103 C 
ATOM     17  C   UNL     1      -3.796   1.076   0.500  1.00  0.00    +0.149 C 
ATOM     18  N   UNL     1      -4.391  -2.299   1.091  1.00  0.00    -0.192 NA
ATOM     19  C   UNL     1      -3.138   2.280   0.120  1.00  0.00    +0.112 C 
ATOM     20  C   UNL     1      -5.121   1.189   1.007  1.00  0.00    +0.112 C 
ATOM     21  N   UNL     1      -2.579   3.250  -0.183  1.00  0.00    -0.192 NA
ATOM     22  N   UNL     1      -6.200   1.290   1.420  1.00  0.00    -0.192 NA
ENDBRANCH  11  15
ENDBRANCH   5  10
TORSDOF 4
