MODEL 1
REMARK VINA RESULT:    -5.434      0.000      0.000
REMARK INTER + INTRA:          -5.851
REMARK INTER:                  -5.751
REMARK INTRA:                  -0.100
REMARK UNBOUND:                -0.100
REMARK SMILES c1ccc(N2CCOCC2)cc1
REMARK SMILES IDX 1 1 2 2 3 3 4 4 11 5 12 6 5 7 6 8 10 9 7 10 9 11 8 12
REMARK H PARENT
ROOT
ATOM      1  C   UNL     1      21.257  -0.570  53.653  1.00  0.00    +0.000 A 
ATOM      2  C   UNL     1      21.942  -1.190  54.691  1.00  0.00    +0.002 A 
ATOM      3  C   UNL     1      23.337  -1.093  54.773  1.00  0.00    +0.026 A 
ATOM      4  C   UNL     1      24.081  -0.385  53.817  1.00  0.00    +0.037 A 
ATOM      5  C   UNL     1      23.359   0.244  52.787  1.00  0.00    +0.026 A 
ATOM      6  C   UNL     1      21.966   0.153  52.700  1.00  0.00    +0.002 A 
ENDROOT
BRANCH   4   7
ATOM      7  N   UNL     1      25.479  -0.251  53.861  1.00  0.00    -0.367 N 
ATOM      8  C   UNL     1      26.123  -0.116  55.185  1.00  0.00    +0.145 C 
ATOM      9  C   UNL     1      26.198  -1.221  52.998  1.00  0.00    +0.145 C 
ATOM     10  C   UNL     1      27.610   0.229  55.008  1.00  0.00    +0.181 C 
ATOM     11  C   UNL     1      27.689  -0.849  52.919  1.00  0.00    +0.181 C 
ATOM     12  O   UNL     1      28.288  -0.764  54.222  1.00  0.00    -0.378 OA
ENDBRANCH   4   7
TORSDOF 1
ENDMDL
MODEL 2
REMARK VINA RESULT:    -5.388      1.539      2.406
REMARK INTER + INTRA:          -5.803
REMARK INTER:                  -5.675
REMARK INTRA:                  -0.128
REMARK UNBOUND:                -0.100
REMARK SMILES c1ccc(N2CCOCC2)cc1
REMARK SMILES IDX 1 1 2 2 3 3 4 4 11 5 12 6 5 7 6 8 10 9 7 10 9 11 8 12
REMARK H PARENT
ROOT
ATOM      1  C   UNL     1      22.313   0.152  52.900  1.00  0.00    +0.000 A 
ATOM      2  C   UNL     1      22.967   1.249  52.353  1.00  0.00    +0.002 A 
ATOM      3  C   UNL     1      24.330   1.454  52.602  1.00  0.00    +0.026 A 
ATOM      4  C   UNL     1      25.069   0.577  53.410  1.00  0.00    +0.037 A 
ATOM      5  C   UNL     1      24.383  -0.532  53.936  1.00  0.00    +0.026 A 
ATOM      6  C   UNL     1      23.023  -0.744  53.691  1.00  0.00    +0.002 A 
ENDROOT
BRANCH   4   7
ATOM      7  N   UNL     1      26.439   0.735  53.681  1.00  0.00    -0.367 N 
ATOM      8  C   UNL     1      27.042   2.067  53.463  1.00  0.00    +0.145 C 
ATOM      9  C   UNL     1      26.861   0.147  54.977  1.00  0.00    +0.145 C 
ATOM     10  C   UNL     1      28.569   1.977  53.609  1.00  0.00    +0.181 C 
ATOM     11  C   UNL     1      28.396   0.148  55.078  1.00  0.00    +0.181 C 
ATOM     12  O   UNL     1      28.942   1.465  54.898  1.00  0.00    -0.378 OA
ENDBRANCH   4   7
TORSDOF 1
ENDMDL
MODEL 3
REMARK VINA RESULT:    -5.367      2.200      5.179
REMARK INTER + INTRA:          -5.780
REMARK INTER:                  -5.671
REMARK INTRA:                  -0.109
REMARK UNBOUND:                -0.100
REMARK SMILES c1ccc(N2CCOCC2)cc1
REMARK SMILES IDX 1 1 2 2 3 3 4 4 11 5 12 6 5 7 6 8 10 9 7 10 9 11 8 12
REMARK H PARENT
ROOT
ATOM      1  C   UNL     1      29.922  -0.835  53.612  1.00  0.00    +0.000 A 
ATOM      2  C   UNL     1      29.119  -1.886  53.183  1.00  0.00    +0.002 A 
ATOM      3  C   UNL     1      27.753  -1.679  52.949  1.00  0.00    +0.026 A 
ATOM      4  C   UNL     1      27.156  -0.425  53.147  1.00  0.00    +0.037 A 
ATOM      5  C   UNL     1      27.997   0.621  53.565  1.00  0.00    +0.026 A 
ATOM      6  C   UNL     1      29.361   0.423  53.799  1.00  0.00    +0.002 A 
ENDROOT
BRANCH   4   7
ATOM      7  N   UNL     1      25.794  -0.166  52.916  1.00  0.00    -0.367 N 
ATOM      8  C   UNL     1      24.830  -0.518  53.980  1.00  0.00    +0.145 C 
ATOM      9  C   UNL     1      25.530   1.184  52.361  1.00  0.00    +0.145 C 
ATOM     10  C   UNL     1      23.394  -0.357  53.455  1.00  0.00    +0.181 C 
ATOM     11  C   UNL     1      24.062   1.291  51.916  1.00  0.00    +0.181 C 
ATOM     12  O   UNL     1      23.155   0.979  52.986  1.00  0.00    -0.378 OA
ENDBRANCH   4   7
TORSDOF 1
ENDMDL
MODEL 4
REMARK VINA RESULT:    -5.131      1.375      1.562
REMARK INTER + INTRA:          -5.531
REMARK INTER:                  -5.408
REMARK INTRA:                  -0.123
REMARK UNBOUND:                -0.100
REMARK SMILES c1ccc(N2CCOCC2)cc1
REMARK SMILES IDX 1 1 2 2 3 3 4 4 11 5 12 6 5 7 6 8 10 9 7 10 9 11 8 12
REMARK H PARENT
ROOT
ATOM      1  C   UNL     1      20.813  -0.051  54.154  1.00  0.00    +0.000 A 
ATOM      2  C   UNL     1      21.746  -0.931  54.692  1.00  0.00    +0.002 A 
ATOM      3  C   UNL     1      23.085  -0.872  54.287  1.00  0.00    +0.026 A 
ATOM      4  C   UNL     1      23.524   0.055  53.330  1.00  0.00    +0.037 A 
ATOM      5  C   UNL     1      22.560   0.942  52.817  1.00  0.00    +0.026 A 
ATOM      6  C   UNL     1      21.222   0.890  53.217  1.00  0.00    +0.002 A 
ENDROOT
BRANCH   4   7
ATOM      7  N   UNL     1      24.857   0.159  52.900  1.00  0.00    -0.367 N 
ATOM      8  C   UNL     1      25.470   1.504  52.854  1.00  0.00    +0.145 C 
ATOM      9  C   UNL     1      25.764  -0.836  53.525  1.00  0.00    +0.145 C 
ATOM     10  C   UNL     1      26.841   1.427  52.163  1.00  0.00    +0.181 C 
ATOM     11  C   UNL     1      27.133  -0.811  52.824  1.00  0.00    +0.181 C 
ATOM     12  O   UNL     1      27.713   0.504  52.833  1.00  0.00    -0.378 OA
ENDBRANCH   4   7
TORSDOF 1
ENDMDL
MODEL 5
REMARK VINA RESULT:    -5.033      2.628      4.865
REMARK INTER + INTRA:          -5.427
REMARK INTER:                  -5.299
REMARK INTRA:                  -0.128
REMARK UNBOUND:                -0.100
REMARK SMILES c1ccc(N2CCOCC2)cc1
REMARK SMILES IDX 1 1 2 2 3 3 4 4 11 5 12 6 5 7 6 8 10 9 7 10 9 11 8 12
REMARK H PARENT
ROOT
ATOM      1  C   UNL     1      27.400   0.458  52.600  1.00  0.00    +0.000 A 
ATOM      2  C   UNL     1      27.029  -0.511  53.525  1.00  0.00    +0.002 A 
ATOM      3  C   UNL     1      25.674  -0.764  53.777  1.00  0.00    +0.026 A 
ATOM      4  C   UNL     1      24.660  -0.051  53.121  1.00  0.00    +0.037 A 
ATOM      5  C   UNL     1      25.066   0.912  52.180  1.00  0.00    +0.026 A 
ATOM      6  C   UNL     1      26.416   1.169  51.922  1.00  0.00    +0.002 A 
ENDROOT
BRANCH   4   7
ATOM      7  N   UNL     1      23.289  -0.275  53.332  1.00  0.00    -0.367 N 
ATOM      8  C   UNL     1      22.883  -0.993  54.559  1.00  0.00    +0.145 C 
ATOM      9  C   UNL     1      22.446   0.923  53.093  1.00  0.00    +0.145 C 
ATOM     10  C   UNL     1      21.382  -1.321  54.497  1.00  0.00    +0.181 C 
ATOM     11  C   UNL     1      20.959   0.529  53.108  1.00  0.00    +0.181 C 
ATOM     12  O   UNL     1      20.594  -0.132  54.331  1.00  0.00    -0.378 OA
ENDBRANCH   4   7
TORSDOF 1
ENDMDL
MODEL 6
REMARK VINA RESULT:    -4.875      2.708      4.523
REMARK INTER + INTRA:          -5.259
REMARK INTER:                  -5.139
REMARK INTRA:                  -0.121
REMARK UNBOUND:                -0.100
REMARK SMILES c1ccc(N2CCOCC2)cc1
REMARK SMILES IDX 1 1 2 2 3 3 4 4 11 5 12 6 5 7 6 8 10 9 7 10 9 11 8 12
REMARK H PARENT
ROOT
ATOM      1  C   UNL     1      25.704   2.388  50.922  1.00  0.00    +0.000 A 
ATOM      2  C   UNL     1      26.323   1.435  51.723  1.00  0.00    +0.002 A 
ATOM      3  C   UNL     1      25.565   0.657  52.608  1.00  0.00    +0.026 A 
ATOM      4  C   UNL     1      24.176   0.819  52.723  1.00  0.00    +0.037 A 
ATOM      5  C   UNL     1      23.577   1.780  51.889  1.00  0.00    +0.026 A 
ATOM      6  C   UNL     1      24.327   2.559  51.003  1.00  0.00    +0.002 A 
ENDROOT
BRANCH   4   7
ATOM      7  N   UNL     1      23.373   0.057  53.588  1.00  0.00    -0.367 N 
ATOM      8  C   UNL     1      22.187  -0.619  53.020  1.00  0.00    +0.145 C 
ATOM      9  C   UNL     1      24.145  -0.845  54.478  1.00  0.00    +0.145 C 
ATOM     10  C   UNL     1      21.335  -1.214  54.153  1.00  0.00    +0.181 C 
ATOM     11  C   UNL     1      23.217  -1.451  55.544  1.00  0.00    +0.181 C 
ATOM     12  O   UNL     1      22.097  -2.131  54.953  1.00  0.00    -0.378 OA
ENDBRANCH   4   7
TORSDOF 1
ENDMDL
MODEL 7
REMARK VINA RESULT:    -4.779      3.256      4.815
REMARK INTER + INTRA:          -5.158
REMARK INTER:                  -5.029
REMARK INTRA:                  -0.129
REMARK UNBOUND:                -0.100
REMARK SMILES c1ccc(N2CCOCC2)cc1
REMARK SMILES IDX 1 1 2 2 3 3 4 4 11 5 12 6 5 7 6 8 10 9 7 10 9 11 8 12
REMARK H PARENT
ROOT
ATOM      1  C   UNL     1      16.971  -0.546  51.496  1.00  0.00    +0.000 A 
ATOM      2  C   UNL     1      17.159  -1.189  52.714  1.00  0.00    +0.002 A 
ATOM      3  C   UNL     1      18.407  -1.145  53.349  1.00  0.00    +0.026 A 
ATOM      4  C   UNL     1      19.498  -0.469  52.780  1.00  0.00    +0.037 A 
ATOM      5  C   UNL     1      19.271   0.184  51.555  1.00  0.00    +0.026 A 
ATOM      6  C   UNL     1      18.028   0.146  50.917  1.00  0.00    +0.002 A 
ENDROOT
BRANCH   4   7
ATOM      7  N   UNL     1      20.764  -0.389  53.383  1.00  0.00    -0.367 N 
ATOM      8  C   UNL     1      21.169  -1.477  54.298  1.00  0.00    +0.145 C 
ATOM      9  C   UNL     1      21.852  -0.035  52.437  1.00  0.00    +0.145 C 
ATOM     10  C   UNL     1      22.479  -1.099  55.009  1.00  0.00    +0.181 C 
ATOM     11  C   UNL     1      23.145   0.268  53.214  1.00  0.00    +0.181 C 
ATOM     12  O   UNL     1      23.525  -0.826  54.064  1.00  0.00    -0.378 OA
ENDBRANCH   4   7
TORSDOF 1
ENDMDL
MODEL 8
REMARK VINA RESULT:    -4.724      3.794      5.503
REMARK INTER + INTRA:          -5.100
REMARK INTER:                  -4.974
REMARK INTRA:                  -0.126
REMARK UNBOUND:                -0.100
REMARK SMILES c1ccc(N2CCOCC2)cc1
REMARK SMILES IDX 1 1 2 2 3 3 4 4 11 5 12 6 5 7 6 8 10 9 7 10 9 11 8 12
REMARK H PARENT
ROOT
ATOM      1  C   UNL     1      22.907  -1.204  54.728  1.00  0.00    +0.000 A 
ATOM      2  C   UNL     1      21.582  -0.794  54.821  1.00  0.00    +0.002 A 
ATOM      3  C   UNL     1      21.119   0.279  54.049  1.00  0.00    +0.026 A 
ATOM      4  C   UNL     1      21.968   0.975  53.175  1.00  0.00    +0.037 A 
ATOM      5  C   UNL     1      23.299   0.526  53.091  1.00  0.00    +0.026 A 
ATOM      6  C   UNL     1      23.767  -0.545  53.857  1.00  0.00    +0.002 A 
ENDROOT
BRANCH   4   7
ATOM      7  N   UNL     1      21.549   2.049  52.373  1.00  0.00    -0.367 N 
ATOM      8  C   UNL     1      20.213   2.629  52.630  1.00  0.00    +0.145 C 
ATOM      9  C   UNL     1      22.580   3.103  52.204  1.00  0.00    +0.145 C 
ATOM     10  C   UNL     1      19.862   3.637  51.524  1.00  0.00    +0.181 C 
ATOM     11  C   UNL     1      22.132   4.108  51.128  1.00  0.00    +0.181 C 
ATOM     12  O   UNL     1      20.848   4.677  51.432  1.00  0.00    -0.378 OA
ENDBRANCH   4   7
TORSDOF 1
ENDMDL
MODEL 9
REMARK VINA RESULT:    -4.563      3.333      5.314
REMARK INTER + INTRA:          -4.930
REMARK INTER:                  -4.805
REMARK INTRA:                  -0.125
REMARK UNBOUND:                -0.100
REMARK SMILES c1ccc(N2CCOCC2)cc1
REMARK SMILES IDX 1 1 2 2 3 3 4 4 11 5 12 6 5 7 6 8 10 9 7 10 9 11 8 12
REMARK H PARENT
ROOT
ATOM      1  C   UNL     1      26.663  -0.427  52.769  1.00  0.00    +0.000 A 
ATOM      2  C   UNL     1      25.582  -0.823  53.548  1.00  0.00    +0.002 A 
ATOM      3  C   UNL     1      24.395  -0.080  53.538  1.00  0.00    +0.026 A 
ATOM      4  C   UNL     1      24.261   1.080  52.761  1.00  0.00    +0.037 A 
ATOM      5  C   UNL     1      25.366   1.446  51.971  1.00  0.00    +0.026 A 
ATOM      6  C   UNL     1      26.553   0.709  51.975  1.00  0.00    +0.002 A 
ENDROOT
BRANCH   4   7
ATOM      7  N   UNL     1      23.089   1.852  52.710  1.00  0.00    -0.367 N 
ATOM      8  C   UNL     1      23.051   2.998  51.776  1.00  0.00    +0.145 C 
ATOM      9  C   UNL     1      21.846   1.044  52.637  1.00  0.00    +0.145 C 
ATOM     10  C   UNL     1      21.782   3.830  52.024  1.00  0.00    +0.181 C 
ATOM     11  C   UNL     1      20.618   1.951  52.830  1.00  0.00    +0.181 C 
ATOM     12  O   UNL     1      20.597   3.030  51.881  1.00  0.00    -0.378 OA
ENDBRANCH   4   7
TORSDOF 1
ENDMDL
