REMARK SMILES O=[N+]([O-])c1cc(-c2ccc(O)cc2)ccc1O
REMARK SMILES IDX 4 1 5 2 6 3 14 4 15 5 16 6 2 7 1 8 3 9 17 10 7 12 8 13 13 14
REMARK SMILES IDX 9 15 12 16 10 17 11 18
REMARK H PARENT 17 11 11 19
ROOT
ATOM      1  C   UNL     1       2.636   0.640   0.170  1.00  0.00    +0.311 A 
ATOM      2  C   UNL     1       1.238   0.789   0.163  1.00  0.00    +0.098 A 
ATOM      3  C   UNL     1       0.397  -0.326   0.004  1.00  0.00    -0.011 A 
ATOM      4  C   UNL     1       0.995  -1.588  -0.148  1.00  0.00    +0.013 A 
ATOM      5  C   UNL     1       2.386  -1.737  -0.141  1.00  0.00    +0.054 A 
ATOM      6  C   UNL     1       3.211  -0.627   0.019  1.00  0.00    +0.194 A 
ENDROOT
BRANCH   1   7
ATOM      7  N   UNL     1       3.471   1.832   0.335  1.00  0.00    +0.066 N 
ATOM      8  O   UNL     1       2.910   2.934   0.400  1.00  0.00    -0.258 OA
ATOM      9  O   UNL     1       4.700   1.665   0.397  1.00  0.00    -0.258 OA
ENDBRANCH   1   7
BRANCH   6  10
ATOM     10  O   UNL     1       4.553  -0.894   0.011  1.00  0.00    -0.502 OA
ATOM     11  H   UNL     1       5.060  -0.066   0.155  1.00  0.00    +0.293 HD
ENDBRANCH   6  10
BRANCH   3  12
ATOM     12  C   UNL     1      -1.068  -0.176  -0.003  1.00  0.00    -0.018 A 
ATOM     13  C   UNL     1      -1.877  -0.944   0.853  1.00  0.00    +0.012 A 
ATOM     14  C   UNL     1      -1.700   0.739  -0.863  1.00  0.00    +0.012 A 
ATOM     15  C   UNL     1      -3.267  -0.802   0.848  1.00  0.00    +0.047 A 
ATOM     16  C   UNL     1      -3.091   0.884  -0.871  1.00  0.00    +0.047 A 
ATOM     17  C   UNL     1      -3.863   0.110  -0.013  1.00  0.00    +0.115 A 
BRANCH  17  18
ATOM     18  O   UNL     1      -5.221   0.216   0.015  1.00  0.00    -0.508 OA
ATOM     19  H   UNL     1      -5.494   0.889  -0.630  1.00  0.00    +0.293 HD
ENDBRANCH  17  18
ENDBRANCH   3  12
TORSDOF 4
