MODEL 1
REMARK VINA RESULT:    -5.849      0.000      0.000
REMARK INTER + INTRA:          -7.562
REMARK INTER:                  -7.046
REMARK INTRA:                  -0.517
REMARK UNBOUND:                -0.517
REMARK SMILES COc1c(C)[nH]c(C=C(N)C(C#N)=C(C#N)C#N)c1C
REMARK SMILES IDX 3 1 4 2 5 3 6 4 7 5 19 6 20 7 2 9 1 10 8 11 9 12 10 13 11 16
REMARK SMILES IDX 12 17 14 18 13 19 15 20 17 21 16 22 18 23
REMARK H PARENT 6 8 10 14 10 15
ROOT
ATOM      1  C   UNL     1      24.923   0.285  53.257  1.00  0.00    +0.142 A 
ATOM      2  C   UNL     1      23.550   0.264  53.145  1.00  0.00    +0.055 A 
ATOM      3  C   UNL     1      22.597  -0.872  53.101  1.00  0.00    +0.068 C 
ATOM      4  N   UNL     1      23.128   1.566  53.079  1.00  0.00    -0.356 N 
ATOM      5  C   UNL     1      24.213   2.411  53.116  1.00  0.00    +0.047 A 
ATOM      6  C   UNL     1      25.356   1.644  53.291  1.00  0.00    +0.016 A 
ATOM      7  C   UNL     1      26.740   2.147  53.507  1.00  0.00    +0.051 C 
ATOM      8  H   UNL     1      22.162   1.856  52.972  1.00  0.00    +0.166 HD
ENDROOT
BRANCH   1   9
ATOM      9  O   UNL     1      25.620  -0.865  53.380  1.00  0.00    -0.495 OA
ATOM     10  C   UNL     1      26.543  -1.088  52.322  1.00  0.00    +0.278 C 
ENDBRANCH   1   9
BRANCH   5  11
ATOM     11  C   UNL     1      23.956   3.800  53.011  1.00  0.00    +0.053 C 
ATOM     12  C   UNL     1      23.761   4.424  51.828  1.00  0.00    +0.054 C 
BRANCH  12  13
ATOM     13  N   UNL     1      23.488   5.781  51.766  1.00  0.00    -0.398 N 
ATOM     14  H   UNL     1      24.302   6.372  51.600  1.00  0.00    +0.156 HD
ATOM     15  H   UNL     1      22.947   6.128  52.558  1.00  0.00    +0.156 HD
ENDBRANCH  12  13
BRANCH  12  16
ATOM     16  C   UNL     1      23.759   3.699  50.548  1.00  0.00    +0.103 C 
ATOM     17  C   UNL     1      25.046   3.451  49.975  1.00  0.00    +0.103 C 
ATOM     18  C   UNL     1      22.628   3.277  49.939  1.00  0.00    +0.149 C 
ATOM     19  N   UNL     1      26.092   3.267  49.510  1.00  0.00    -0.192 NA
ATOM     20  C   UNL     1      21.346   3.528  50.507  1.00  0.00    +0.112 C 
ATOM     21  C   UNL     1      22.667   2.564  48.708  1.00  0.00    +0.112 C 
ATOM     22  N   UNL     1      20.311   3.717  50.996  1.00  0.00    -0.192 NA
ATOM     23  N   UNL     1      22.702   1.987  47.702  1.00  0.00    -0.192 NA
ENDBRANCH  12  16
ENDBRANCH   5  11
TORSDOF 4
ENDMDL
MODEL 2
REMARK VINA RESULT:    -5.831      1.172      2.121
REMARK INTER + INTRA:          -7.541
REMARK INTER:                  -6.901
REMARK INTRA:                  -0.640
REMARK UNBOUND:                -0.517
REMARK SMILES COc1c(C)[nH]c(C=C(N)C(C#N)=C(C#N)C#N)c1C
REMARK SMILES IDX 3 1 4 2 5 3 6 4 7 5 19 6 20 7 2 9 1 10 8 11 9 12 10 13 11 16
REMARK SMILES IDX 12 17 14 18 13 19 15 20 17 21 16 22 18 23
REMARK H PARENT 6 8 10 14 10 15
ROOT
ATOM      1  C   UNL     1      23.309   0.036  53.153  1.00  0.00    +0.142 A 
ATOM      2  C   UNL     1      24.675   0.200  53.200  1.00  0.00    +0.055 A 
ATOM      3  C   UNL     1      25.770  -0.796  53.295  1.00  0.00    +0.068 C 
ATOM      4  N   UNL     1      24.925   1.546  53.134  1.00  0.00    -0.356 N 
ATOM      5  C   UNL     1      23.738   2.239  53.077  1.00  0.00    +0.047 A 
ATOM      6  C   UNL     1      22.700   1.319  53.025  1.00  0.00    +0.016 A 
ATOM      7  C   UNL     1      21.254   1.621  52.834  1.00  0.00    +0.051 C 
ATOM      8  H   UNL     1      25.848   1.965  53.169  1.00  0.00    +0.166 HD
ENDROOT
BRANCH   1   9
ATOM      9  O   UNL     1      22.764  -1.200  53.163  1.00  0.00    -0.495 OA
ATOM     10  C   UNL     1      22.092  -1.517  54.375  1.00  0.00    +0.278 C 
ENDBRANCH   1   9
BRANCH   5  11
ATOM     11  C   UNL     1      23.814   3.654  53.052  1.00  0.00    +0.053 C 
ATOM     12  C   UNL     1      23.872   4.366  51.905  1.00  0.00    +0.054 C 
BRANCH  12  13
ATOM     13  N   UNL     1      23.920   5.751  51.919  1.00  0.00    -0.398 N 
ATOM     14  H   UNL     1      24.242   6.174  51.049  1.00  0.00    +0.156 HD
ATOM     15  H   UNL     1      24.427   6.136  52.716  1.00  0.00    +0.156 HD
ENDBRANCH  12  13
BRANCH  12  16
ATOM     16  C   UNL     1      23.820   3.728  50.580  1.00  0.00    +0.103 C 
ATOM     17  C   UNL     1      25.070   3.255  50.072  1.00  0.00    +0.103 C 
ATOM     18  C   UNL     1      22.676   3.581  49.874  1.00  0.00    +0.149 C 
ATOM     19  N   UNL     1      26.090   2.886  49.661  1.00  0.00    -0.192 NA
ATOM     20  C   UNL     1      21.431   4.057  50.379  1.00  0.00    +0.112 C 
ATOM     21  C   UNL     1      22.662   2.944  48.602  1.00  0.00    +0.112 C 
ATOM     22  N   UNL     1      20.421   4.427  50.814  1.00  0.00    -0.192 NA
ATOM     23  N   UNL     1      22.656   2.429  47.562  1.00  0.00    -0.192 NA
ENDBRANCH  12  16
ENDBRANCH   5  11
TORSDOF 4
ENDMDL
MODEL 3
REMARK VINA RESULT:    -5.817      0.945      2.308
REMARK INTER + INTRA:          -7.524
REMARK INTER:                  -6.731
REMARK INTRA:                  -0.793
REMARK UNBOUND:                -0.517
REMARK SMILES COc1c(C)[nH]c(C=C(N)C(C#N)=C(C#N)C#N)c1C
REMARK SMILES IDX 3 1 4 2 5 3 6 4 7 5 19 6 20 7 2 9 1 10 8 11 9 12 10 13 11 16
REMARK SMILES IDX 12 17 14 18 13 19 15 20 17 21 16 22 18 23
REMARK H PARENT 6 8 10 14 10 15
ROOT
ATOM      1  C   UNL     1      25.245   0.486  52.561  1.00  0.00    +0.142 A 
ATOM      2  C   UNL     1      24.023   0.331  53.176  1.00  0.00    +0.055 A 
ATOM      3  C   UNL     1      23.323  -0.887  53.654  1.00  0.00    +0.068 C 
ATOM      4  N   UNL     1      23.477   1.581  53.313  1.00  0.00    -0.356 N 
ATOM      5  C   UNL     1      24.319   2.521  52.767  1.00  0.00    +0.047 A 
ATOM      6  C   UNL     1      25.471   1.876  52.340  1.00  0.00    +0.016 A 
ATOM      7  C   UNL     1      26.700   2.519  51.798  1.00  0.00    +0.051 C 
ATOM      8  H   UNL     1      22.566   1.772  53.716  1.00  0.00    +0.166 HD
ENDROOT
BRANCH   1   9
ATOM      9  O   UNL     1      26.037  -0.584  52.328  1.00  0.00    -0.495 OA
ATOM     10  C   UNL     1      27.038  -0.779  53.317  1.00  0.00    +0.278 C 
ENDBRANCH   1   9
BRANCH   5  11
ATOM     11  C   UNL     1      23.883   3.869  52.783  1.00  0.00    +0.053 C 
ATOM     12  C   UNL     1      23.128   4.409  51.801  1.00  0.00    +0.054 C 
BRANCH  12  13
ATOM     13  N   UNL     1      22.699   5.725  51.863  1.00  0.00    -0.398 N 
ATOM     14  H   UNL     1      21.802   5.902  51.413  1.00  0.00    +0.156 HD
ATOM     15  H   UNL     1      23.398   6.400  51.550  1.00  0.00    +0.156 HD
ENDBRANCH  12  13
BRANCH  12  16
ATOM     16  C   UNL     1      22.661   3.624  50.648  1.00  0.00    +0.103 C 
ATOM     17  C   UNL     1      21.409   2.956  50.820  1.00  0.00    +0.103 C 
ATOM     18  C   UNL     1      23.351   3.530  49.488  1.00  0.00    +0.149 C 
ATOM     19  N   UNL     1      20.399   2.407  50.973  1.00  0.00    -0.192 NA
ATOM     20  C   UNL     1      24.602   4.191  49.318  1.00  0.00    +0.112 C 
ATOM     21  C   UNL     1      22.860   2.773  48.388  1.00  0.00    +0.112 C 
ATOM     22  N   UNL     1      25.607   4.756  49.186  1.00  0.00    -0.192 NA
ATOM     23  N   UNL     1      22.458   2.151  47.495  1.00  0.00    -0.192 NA
ENDBRANCH  12  16
ENDBRANCH   5  11
TORSDOF 4
ENDMDL
MODEL 4
REMARK VINA RESULT:    -5.571      2.299      4.784
REMARK INTER + INTRA:          -7.228
REMARK INTER:                  -6.561
REMARK INTRA:                  -0.667
REMARK UNBOUND:                -0.517
REMARK SMILES COc1c(C)[nH]c(C=C(N)C(C#N)=C(C#N)C#N)c1C
REMARK SMILES IDX 3 1 4 2 5 3 6 4 7 5 19 6 20 7 2 9 1 10 8 11 9 12 10 13 11 16
REMARK SMILES IDX 12 17 14 18 13 19 15 20 17 21 16 22 18 23
REMARK H PARENT 6 8 10 14 10 15
ROOT
ATOM      1  C   UNL     1      21.591   0.358  53.145  1.00  0.00    +0.142 A 
ATOM      2  C   UNL     1      22.729   0.696  52.447  1.00  0.00    +0.055 A 
ATOM      3  C   UNL     1      24.135   0.846  52.896  1.00  0.00    +0.068 C 
ATOM      4  N   UNL     1      22.361   0.891  51.141  1.00  0.00    -0.356 N 
ATOM      5  C   UNL     1      21.004   0.713  51.007  1.00  0.00    +0.047 A 
ATOM      6  C   UNL     1      20.494   0.315  52.235  1.00  0.00    +0.016 A 
ATOM      7  C   UNL     1      19.095  -0.104  52.523  1.00  0.00    +0.051 C 
ATOM      8  H   UNL     1      22.993   1.170  50.399  1.00  0.00    +0.166 HD
ENDROOT
BRANCH   1   9
ATOM      9  O   UNL     1      21.654   0.068  54.463  1.00  0.00    -0.495 OA
ATOM     10  C   UNL     1      21.808  -1.318  54.735  1.00  0.00    +0.278 C 
ENDBRANCH   1   9
BRANCH   5  11
ATOM     11  C   UNL     1      20.447   0.923  49.722  1.00  0.00    +0.053 C 
ATOM     12  C   UNL     1      20.070   2.141  49.274  1.00  0.00    +0.054 C 
BRANCH  12  13
ATOM     13  N   UNL     1      19.552   2.312  48.000  1.00  0.00    -0.398 N 
ATOM     14  H   UNL     1      19.411   1.448  47.479  1.00  0.00    +0.156 HD
ATOM     15  H   UNL     1      20.061   2.993  47.438  1.00  0.00    +0.156 HD
ENDBRANCH  12  13
BRANCH  12  16
ATOM     16  C   UNL     1      20.248   3.362  50.076  1.00  0.00    +0.103 C 
ATOM     17  C   UNL     1      19.211   3.638  51.021  1.00  0.00    +0.103 C 
ATOM     18  C   UNL     1      21.316   4.181  49.949  1.00  0.00    +0.149 C 
ATOM     19  N   UNL     1      18.359   3.861  51.776  1.00  0.00    -0.192 NA
ATOM     20  C   UNL     1      22.347   3.910  49.004  1.00  0.00    +0.112 C 
ATOM     21  C   UNL     1      21.461   5.346  50.754  1.00  0.00    +0.112 C 
ATOM     22  N   UNL     1      23.190   3.661  48.247  1.00  0.00    -0.192 NA
ATOM     23  N   UNL     1      21.573   6.298  51.409  1.00  0.00    -0.192 NA
ENDBRANCH  12  16
ENDBRANCH   5  11
TORSDOF 4
ENDMDL
MODEL 5
REMARK VINA RESULT:    -5.339      2.139      4.102
REMARK INTER + INTRA:          -6.949
REMARK INTER:                  -6.434
REMARK INTRA:                  -0.515
REMARK UNBOUND:                -0.517
REMARK SMILES COc1c(C)[nH]c(C=C(N)C(C#N)=C(C#N)C#N)c1C
REMARK SMILES IDX 3 1 4 2 5 3 6 4 7 5 19 6 20 7 2 9 1 10 8 11 9 12 10 13 11 16
REMARK SMILES IDX 12 17 14 18 13 19 15 20 17 21 16 22 18 23
REMARK H PARENT 6 8 10 14 10 15
ROOT
ATOM      1  C   UNL     1      23.455   1.243  52.228  1.00  0.00    +0.142 A 
ATOM      2  C   UNL     1      22.364   0.519  52.655  1.00  0.00    +0.055 A 
ATOM      3  C   UNL     1      22.097  -0.165  53.944  1.00  0.00    +0.068 C 
ATOM      4  N   UNL     1      21.453   0.516  51.631  1.00  0.00    -0.356 N 
ATOM      5  C   UNL     1      21.962   1.199  50.551  1.00  0.00    +0.047 A 
ATOM      6  C   UNL     1      23.195   1.725  50.911  1.00  0.00    +0.016 A 
ATOM      7  C   UNL     1      24.045   2.635  50.095  1.00  0.00    +0.051 C 
ATOM      8  H   UNL     1      20.558   0.040  51.656  1.00  0.00    +0.166 HD
ENDROOT
BRANCH   1   9
ATOM      9  O   UNL     1      24.508   1.449  53.049  1.00  0.00    -0.495 OA
ATOM     10  C   UNL     1      25.582   0.543  52.838  1.00  0.00    +0.278 C 
ENDBRANCH   1   9
BRANCH   5  11
ATOM     11  C   UNL     1      21.162   1.253  49.383  1.00  0.00    +0.053 C 
ATOM     12  C   UNL     1      20.448   2.344  49.029  1.00  0.00    +0.054 C 
BRANCH  12  13
ATOM     13  N   UNL     1      19.697   2.368  47.865  1.00  0.00    -0.398 N 
ATOM     14  H   UNL     1      19.516   3.300  47.495  1.00  0.00    +0.156 HD
ATOM     15  H   UNL     1      18.832   1.830  47.924  1.00  0.00    +0.156 HD
ENDBRANCH  12  13
BRANCH  12  16
ATOM     16  C   UNL     1      20.476   3.588  49.814  1.00  0.00    +0.103 C 
ATOM     17  C   UNL     1      19.749   3.560  51.045  1.00  0.00    +0.103 C 
ATOM     18  C   UNL     1      21.144   4.697  49.420  1.00  0.00    +0.149 C 
ATOM     19  N   UNL     1      19.145   3.533  52.035  1.00  0.00    -0.192 NA
ATOM     20  C   UNL     1      21.864   4.727  48.192  1.00  0.00    +0.112 C 
ATOM     21  C   UNL     1      21.160   5.878  50.214  1.00  0.00    +0.112 C 
ATOM     22  N   UNL     1      22.467   4.727  47.200  1.00  0.00    -0.192 NA
ATOM     23  N   UNL     1      21.167   6.840  50.862  1.00  0.00    -0.192 NA
ENDBRANCH  12  16
ENDBRANCH   5  11
TORSDOF 4
ENDMDL
MODEL 6
REMARK VINA RESULT:    -5.274      2.028      3.841
REMARK INTER + INTRA:          -6.870
REMARK INTER:                  -6.261
REMARK INTRA:                  -0.609
REMARK UNBOUND:                -0.517
REMARK SMILES COc1c(C)[nH]c(C=C(N)C(C#N)=C(C#N)C#N)c1C
REMARK SMILES IDX 3 1 4 2 5 3 6 4 7 5 19 6 20 7 2 9 1 10 8 11 9 12 10 13 11 16
REMARK SMILES IDX 12 17 14 18 13 19 15 20 17 21 16 22 18 23
REMARK H PARENT 6 8 10 14 10 15
ROOT
ATOM      1  C   UNL     1      24.668   2.284  52.151  1.00  0.00    +0.142 A 
ATOM      2  C   UNL     1      25.184   2.640  50.925  1.00  0.00    +0.055 A 
ATOM      3  C   UNL     1      26.495   3.228  50.556  1.00  0.00    +0.068 C 
ATOM      4  N   UNL     1      24.233   2.343  49.983  1.00  0.00    -0.356 N 
ATOM      5  C   UNL     1      23.111   1.835  50.596  1.00  0.00    +0.047 A 
ATOM      6  C   UNL     1      23.371   1.724  51.955  1.00  0.00    +0.016 A 
ATOM      7  C   UNL     1      22.485   1.110  52.982  1.00  0.00    +0.051 C 
ATOM      8  H   UNL     1      24.330   2.519  48.989  1.00  0.00    +0.166 HD
ENDROOT
BRANCH   1   9
ATOM      9  O   UNL     1      25.405   2.427  53.274  1.00  0.00    -0.495 OA
ATOM     10  C   UNL     1      26.100   1.248  53.655  1.00  0.00    +0.278 C 
ENDBRANCH   1   9
BRANCH   5  11
ATOM     11  C   UNL     1      22.007   1.518  49.767  1.00  0.00    +0.053 C 
ATOM     12  C   UNL     1      21.192   2.456  49.236  1.00  0.00    +0.054 C 
BRANCH  12  13
ATOM     13  N   UNL     1      20.136   2.108  48.409  1.00  0.00    -0.398 N 
ATOM     14  H   UNL     1      19.212   2.263  48.811  1.00  0.00    +0.156 HD
ATOM     15  H   UNL     1      20.208   1.166  48.025  1.00  0.00    +0.156 HD
ENDBRANCH  12  13
BRANCH  12  16
ATOM     16  C   UNL     1      21.411   3.895  49.446  1.00  0.00    +0.103 C 
ATOM     17  C   UNL     1      22.132   4.569  48.412  1.00  0.00    +0.103 C 
ATOM     18  C   UNL     1      20.963   4.561  50.535  1.00  0.00    +0.149 C 
ATOM     19  N   UNL     1      22.730   5.105  47.575  1.00  0.00    -0.192 NA
ATOM     20  C   UNL     1      20.248   3.889  51.568  1.00  0.00    +0.112 C 
ATOM     21  C   UNL     1      21.180   5.958  50.696  1.00  0.00    +0.112 C 
ATOM     22  N   UNL     1      19.645   3.333  52.389  1.00  0.00    -0.192 NA
ATOM     23  N   UNL     1      21.365   7.096  50.826  1.00  0.00    -0.192 NA
ENDBRANCH  12  16
ENDBRANCH   5  11
TORSDOF 4
ENDMDL
MODEL 7
REMARK VINA RESULT:    -5.251      2.042      3.377
REMARK INTER + INTRA:          -6.842
REMARK INTER:                  -6.026
REMARK INTRA:                  -0.817
REMARK UNBOUND:                -0.517
REMARK SMILES COc1c(C)[nH]c(C=C(N)C(C#N)=C(C#N)C#N)c1C
REMARK SMILES IDX 3 1 4 2 5 3 6 4 7 5 19 6 20 7 2 9 1 10 8 11 9 12 10 13 11 16
REMARK SMILES IDX 12 17 14 18 13 19 15 20 17 21 16 22 18 23
REMARK H PARENT 6 8 10 14 10 15
ROOT
ATOM      1  C   UNL     1      21.685   0.350  52.852  1.00  0.00    +0.142 A 
ATOM      2  C   UNL     1      20.328   0.570  52.767  1.00  0.00    +0.055 A 
ATOM      3  C   UNL     1      19.186  -0.375  52.824  1.00  0.00    +0.068 C 
ATOM      4  N   UNL     1      20.144   1.919  52.615  1.00  0.00    -0.356 N 
ATOM      5  C   UNL     1      21.364   2.555  52.570  1.00  0.00    +0.047 A 
ATOM      6  C   UNL     1      22.356   1.606  52.778  1.00  0.00    +0.016 A 
ATOM      7  C   UNL     1      23.814   1.864  52.931  1.00  0.00    +0.051 C 
ATOM      8  H   UNL     1      19.243   2.371  52.505  1.00  0.00    +0.166 HD
ENDROOT
BRANCH   1   9
ATOM      9  O   UNL     1      22.168  -0.897  53.045  1.00  0.00    -0.495 OA
ATOM     10  C   UNL     1      22.368  -1.225  54.413  1.00  0.00    +0.278 C 
ENDBRANCH   1   9
BRANCH   5  11
ATOM     11  C   UNL     1      21.357   3.957  52.368  1.00  0.00    +0.053 C 
ATOM     12  C   UNL     1      21.439   4.524  51.145  1.00  0.00    +0.054 C 
BRANCH  12  13
ATOM     13  N   UNL     1      21.404   5.900  50.985  1.00  0.00    -0.398 N 
ATOM     14  H   UNL     1      20.608   6.360  51.425  1.00  0.00    +0.156 HD
ATOM     15  H   UNL     1      21.504   6.203  50.016  1.00  0.00    +0.156 HD
ENDBRANCH  12  13
BRANCH  12  16
ATOM     16  C   UNL     1      21.501   3.725  49.911  1.00  0.00    +0.103 C 
ATOM     17  C   UNL     1      20.240   3.315  49.375  1.00  0.00    +0.103 C 
ATOM     18  C   UNL     1      22.662   3.392  49.303  1.00  0.00    +0.149 C 
ATOM     19  N   UNL     1      19.214   2.976  48.954  1.00  0.00    -0.192 NA
ATOM     20  C   UNL     1      23.919   3.795  49.840  1.00  0.00    +0.112 C 
ATOM     21  C   UNL     1      22.682   2.630  48.101  1.00  0.00    +0.112 C 
ATOM     22  N   UNL     1      24.933   4.153  50.276  1.00  0.00    -0.192 NA
ATOM     23  N   UNL     1      22.694   2.004  47.124  1.00  0.00    -0.192 NA
ENDBRANCH  12  16
ENDBRANCH   5  11
TORSDOF 4
ENDMDL
MODEL 8
REMARK VINA RESULT:    -5.156      1.869      2.375
REMARK INTER + INTRA:          -6.728
REMARK INTER:                  -5.948
REMARK INTRA:                  -0.780
REMARK UNBOUND:                -0.517
REMARK SMILES COc1c(C)[nH]c(C=C(N)C(C#N)=C(C#N)C#N)c1C
REMARK SMILES IDX 3 1 4 2 5 3 6 4 7 5 19 6 20 7 2 9 1 10 8 11 9 12 10 13 11 16
REMARK SMILES IDX 12 17 14 18 13 19 15 20 17 21 16 22 18 23
REMARK H PARENT 6 8 10 14 10 15
ROOT
ATOM      1  C   UNL     1      22.233   1.164  52.445  1.00  0.00    +0.142 A 
ATOM      2  C   UNL     1      20.974   1.704  52.302  1.00  0.00    +0.055 A 
ATOM      3  C   UNL     1      19.649   1.053  52.157  1.00  0.00    +0.068 C 
ATOM      4  N   UNL     1      21.112   3.068  52.322  1.00  0.00    -0.356 N 
ATOM      5  C   UNL     1      22.441   3.401  52.442  1.00  0.00    +0.047 A 
ATOM      6  C   UNL     1      23.172   2.229  52.585  1.00  0.00    +0.016 A 
ATOM      7  C   UNL     1      24.629   2.119  52.866  1.00  0.00    +0.051 C 
ATOM      8  H   UNL     1      20.350   3.727  52.215  1.00  0.00    +0.166 HD
ENDROOT
BRANCH   1   9
ATOM      9  O   UNL     1      22.404  -0.174  52.499  1.00  0.00    -0.495 OA
ATOM     10  C   UNL     1      22.456  -0.689  53.823  1.00  0.00    +0.278 C 
ENDBRANCH   1   9
BRANCH   5  11
ATOM     11  C   UNL     1      22.768   4.779  52.431  1.00  0.00    +0.053 C 
ATOM     12  C   UNL     1      23.131   5.440  51.310  1.00  0.00    +0.054 C 
BRANCH  12  13
ATOM     13  N   UNL     1      23.420   6.795  51.334  1.00  0.00    -0.398 N 
ATOM     14  H   UNL     1      24.276   7.039  51.830  1.00  0.00    +0.156 HD
ATOM     15  H   UNL     1      22.642   7.374  51.651  1.00  0.00    +0.156 HD
ENDBRANCH  12  13
BRANCH  12  16
ATOM     16  C   UNL     1      23.178   4.785  49.993  1.00  0.00    +0.103 C 
ATOM     17  C   UNL     1      24.432   4.198  49.638  1.00  0.00    +0.103 C 
ATOM     18  C   UNL     1      22.115   4.724  49.159  1.00  0.00    +0.149 C 
ATOM     19  N   UNL     1      25.457   3.737  49.352  1.00  0.00    -0.192 NA
ATOM     20  C   UNL     1      20.866   5.313  49.511  1.00  0.00    +0.112 C 
ATOM     21  C   UNL     1      22.193   4.068  47.899  1.00  0.00    +0.112 C 
ATOM     22  N   UNL     1      19.849   5.775  49.823  1.00  0.00    -0.192 NA
ATOM     23  N   UNL     1      22.263   3.537  46.870  1.00  0.00    -0.192 NA
ENDBRANCH  12  16
ENDBRANCH   5  11
TORSDOF 4
ENDMDL
MODEL 9
REMARK VINA RESULT:    -5.126      2.304      3.599
REMARK INTER + INTRA:          -6.692
REMARK INTER:                  -5.992
REMARK INTRA:                  -0.699
REMARK UNBOUND:                -0.517
REMARK SMILES COc1c(C)[nH]c(C=C(N)C(C#N)=C(C#N)C#N)c1C
REMARK SMILES IDX 3 1 4 2 5 3 6 4 7 5 19 6 20 7 2 9 1 10 8 11 9 12 10 13 11 16
REMARK SMILES IDX 12 17 14 18 13 19 15 20 17 21 16 22 18 23
REMARK H PARENT 6 8 10 14 10 15
ROOT
ATOM      1  C   UNL     1      25.585   3.058  50.986  1.00  0.00    +0.142 A 
ATOM      2  C   UNL     1      26.028   4.029  50.115  1.00  0.00    +0.055 A 
ATOM      3  C   UNL     1      27.141   4.020  49.136  1.00  0.00    +0.068 C 
ATOM      4  N   UNL     1      25.216   5.121  50.280  1.00  0.00    -0.356 N 
ATOM      5  C   UNL     1      24.287   4.870  51.263  1.00  0.00    +0.047 A 
ATOM      6  C   UNL     1      24.449   3.558  51.688  1.00  0.00    +0.016 A 
ATOM      7  C   UNL     1      23.583   2.823  52.650  1.00  0.00    +0.051 C 
ATOM      8  H   UNL     1      25.320   5.998  49.782  1.00  0.00    +0.166 HD
ENDROOT
BRANCH   1   9
ATOM      9  O   UNL     1      26.177   1.844  51.020  1.00  0.00    -0.495 OA
ATOM     10  C   UNL     1      27.030   1.656  52.141  1.00  0.00    +0.278 C 
ENDBRANCH   1   9
BRANCH   5  11
ATOM     11  C   UNL     1      23.394   5.918  51.594  1.00  0.00    +0.053 C 
ATOM     12  C   UNL     1      22.229   6.125  50.943  1.00  0.00    +0.054 C 
BRANCH  12  13
ATOM     13  N   UNL     1      21.368   7.146  51.312  1.00  0.00    -0.398 N 
ATOM     14  H   UNL     1      21.180   7.203  52.312  1.00  0.00    +0.156 HD
ATOM     15  H   UNL     1      20.498   7.163  50.780  1.00  0.00    +0.156 HD
ENDBRANCH  12  13
BRANCH  12  16
ATOM     16  C   UNL     1      21.771   5.247  49.855  1.00  0.00    +0.103 C 
ATOM     17  C   UNL     1      22.276   5.557  48.554  1.00  0.00    +0.103 C 
ATOM     18  C   UNL     1      20.932   4.204  50.050  1.00  0.00    +0.149 C 
ATOM     19  N   UNL     1      22.680   5.824  47.500  1.00  0.00    -0.192 NA
ATOM     20  C   UNL     1      20.424   3.897  51.345  1.00  0.00    +0.112 C 
ATOM     21  C   UNL     1      20.522   3.366  48.975  1.00  0.00    +0.112 C 
ATOM     22  N   UNL     1      20.039   3.645  52.411  1.00  0.00    -0.192 NA
ATOM     23  N   UNL     1      20.187   2.689  48.095  1.00  0.00    -0.192 NA
ENDBRANCH  12  16
ENDBRANCH   5  11
TORSDOF 4
ENDMDL
