MODEL 1
REMARK VINA RESULT:    -7.657      0.000      0.000
REMARK INTER + INTRA:          -9.367
REMARK INTER:                  -8.776
REMARK INTRA:                  -0.590
REMARK UNBOUND:                -0.590
REMARK SMILES O=[N+]([O-])c1cc(-c2ccc(F)c(Cl)c2)ccc1O
REMARK SMILES IDX 4 1 5 2 6 3 15 4 16 5 17 6 2 7 1 8 3 9 18 10 7 12 8 13 14 14
REMARK SMILES IDX 9 15 12 16 10 17 13 18 11 19
REMARK H PARENT 18 11
ROOT
ATOM      1  C   UNL     1      27.248   0.686  54.041  1.00  0.00    +0.311 A 
ATOM      2  C   UNL     1      25.962   0.142  54.165  1.00  0.00    +0.098 A 
ATOM      3  C   UNL     1      24.938   0.567  53.306  1.00  0.00    -0.011 A 
ATOM      4  C   UNL     1      25.249   1.538  52.334  1.00  0.00    +0.013 A 
ATOM      5  C   UNL     1      26.540   2.071  52.215  1.00  0.00    +0.054 A 
ATOM      6  C   UNL     1      27.549   1.641  53.072  1.00  0.00    +0.194 A 
ENDROOT
BRANCH   1   7
ATOM      7  N   UNL     1      28.273   0.226  54.953  1.00  0.00    +0.066 N 
ATOM      8  O   UNL     1      29.320  -0.201  54.446  1.00  0.00    -0.258 OA
ATOM      9  O   UNL     1      28.005   0.231  56.162  1.00  0.00    -0.258 OA
ENDBRANCH   1   7
BRANCH   6  10
ATOM     10  O   UNL     1      28.812   2.136  52.940  1.00  0.00    -0.502 OA
ATOM     11  H   UNL     1      29.311   1.611  52.292  1.00  0.00    +0.293 HD
ENDBRANCH   6  10
BRANCH   3  12
ATOM     12  C   UNL     1      23.579   0.014  53.416  1.00  0.00    -0.016 A 
ATOM     13  C   UNL     1      23.246  -0.881  54.451  1.00  0.00    +0.012 A 
ATOM     14  C   UNL     1      22.578   0.366  52.493  1.00  0.00    +0.032 A 
ATOM     15  C   UNL     1      21.955  -1.407  54.558  1.00  0.00    +0.041 A 
ATOM     16  C   UNL     1      21.289  -0.162  52.601  1.00  0.00    +0.077 A 
ATOM     17  C   UNL     1      20.985  -1.045  53.632  1.00  0.00    +0.141 A 
ATOM     18 Cl   UNL     1      20.092   0.288  51.448  1.00  0.00    -0.081 Cl
ATOM     19  F   UNL     1      19.754  -1.563  53.753  1.00  0.00    -0.205 F 
ENDBRANCH   3  12
TORSDOF 3
ENDMDL
MODEL 2
REMARK VINA RESULT:    -7.402      1.723      2.538
REMARK INTER + INTRA:          -9.075
REMARK INTER:                  -8.486
REMARK INTRA:                  -0.589
REMARK UNBOUND:                -0.590
REMARK SMILES O=[N+]([O-])c1cc(-c2ccc(F)c(Cl)c2)ccc1O
REMARK SMILES IDX 4 1 5 2 6 3 15 4 16 5 17 6 2 7 1 8 3 9 18 10 7 12 8 13 14 14
REMARK SMILES IDX 9 15 12 16 10 17 13 18 11 19
REMARK H PARENT 18 11
ROOT
ATOM      1  C   UNL     1      28.033   0.890  53.611  1.00  0.00    +0.311 A 
ATOM      2  C   UNL     1      26.648   1.094  53.551  1.00  0.00    +0.098 A 
ATOM      3  C   UNL     1      25.798   0.026  53.231  1.00  0.00    -0.011 A 
ATOM      4  C   UNL     1      26.380  -1.232  52.980  1.00  0.00    +0.013 A 
ATOM      5  C   UNL     1      27.766  -1.426  53.048  1.00  0.00    +0.054 A 
ATOM      6  C   UNL     1      28.600  -0.360  53.369  1.00  0.00    +0.194 A 
ENDROOT
BRANCH   1   7
ATOM      7  N   UNL     1      28.875   2.020  53.937  1.00  0.00    +0.066 N 
ATOM      8  O   UNL     1      28.985   2.901  53.073  1.00  0.00    -0.258 OA
ATOM      9  O   UNL     1      29.473   1.994  55.021  1.00  0.00    -0.258 OA
ENDBRANCH   1   7
BRANCH   6  10
ATOM     10  O   UNL     1      29.947  -0.551  53.465  1.00  0.00    -0.502 OA
ATOM     11  H   UNL     1      30.371  -0.379  52.608  1.00  0.00    +0.293 HD
ENDBRANCH   6  10
BRANCH   3  12
ATOM     12  C   UNL     1      24.340   0.213  53.159  1.00  0.00    -0.016 A 
ATOM     13  C   UNL     1      23.788   1.318  52.485  1.00  0.00    +0.012 A 
ATOM     14  C   UNL     1      23.462  -0.707  53.760  1.00  0.00    +0.032 A 
ATOM     15  C   UNL     1      22.403   1.499  52.414  1.00  0.00    +0.041 A 
ATOM     16  C   UNL     1      22.078  -0.524  53.689  1.00  0.00    +0.077 A 
ATOM     17  C   UNL     1      21.557   0.577  53.017  1.00  0.00    +0.141 A 
ATOM     18 Cl   UNL     1      21.035  -1.668  54.442  1.00  0.00    -0.081 Cl
ATOM     19  F   UNL     1      20.232   0.770  52.939  1.00  0.00    -0.205 F 
ENDBRANCH   3  12
TORSDOF 3
ENDMDL
MODEL 3
REMARK VINA RESULT:    -7.358      3.338      4.654
REMARK INTER + INTRA:          -9.023
REMARK INTER:                  -8.414
REMARK INTRA:                  -0.609
REMARK UNBOUND:                -0.590
REMARK SMILES O=[N+]([O-])c1cc(-c2ccc(F)c(Cl)c2)ccc1O
REMARK SMILES IDX 4 1 5 2 6 3 15 4 16 5 17 6 2 7 1 8 3 9 18 10 7 12 8 13 14 14
REMARK SMILES IDX 9 15 12 16 10 17 13 18 11 19
REMARK H PARENT 18 11
ROOT
ATOM      1  C   UNL     1      25.913  -0.114  54.612  1.00  0.00    +0.311 A 
ATOM      2  C   UNL     1      25.762   0.740  53.511  1.00  0.00    +0.098 A 
ATOM      3  C   UNL     1      24.533   0.803  52.840  1.00  0.00    -0.011 A 
ATOM      4  C   UNL     1      23.480  -0.007  53.308  1.00  0.00    +0.013 A 
ATOM      5  C   UNL     1      23.641  -0.853  54.414  1.00  0.00    +0.054 A 
ATOM      6  C   UNL     1      24.864  -0.906  55.074  1.00  0.00    +0.194 A 
ENDROOT
BRANCH   1   7
ATOM      7  N   UNL     1      27.201  -0.154  55.271  1.00  0.00    +0.066 N 
ATOM      8  O   UNL     1      28.171  -0.491  54.579  1.00  0.00    -0.258 OA
ATOM      9  O   UNL     1      27.229   0.085  56.486  1.00  0.00    -0.258 OA
ENDBRANCH   1   7
BRANCH   6  10
ATOM     10  O   UNL     1      25.016  -1.705  56.168  1.00  0.00    -0.502 OA
ATOM     11  H   UNL     1      25.327  -1.182  56.925  1.00  0.00    +0.293 HD
ENDBRANCH   6  10
BRANCH   3  12
ATOM     12  C   UNL     1      24.347   1.689  51.679  1.00  0.00    -0.016 A 
ATOM     13  C   UNL     1      23.088   1.817  51.065  1.00  0.00    +0.012 A 
ATOM     14  C   UNL     1      25.422   2.429  51.155  1.00  0.00    +0.032 A 
ATOM     15  C   UNL     1      22.908   2.658  49.961  1.00  0.00    +0.041 A 
ATOM     16  C   UNL     1      25.242   3.268  50.053  1.00  0.00    +0.077 A 
ATOM     17  C   UNL     1      23.987   3.377  49.462  1.00  0.00    +0.141 A 
ATOM     18 Cl   UNL     1      26.583   4.154  49.436  1.00  0.00    -0.081 Cl
ATOM     19  F   UNL     1      23.793   4.177  48.403  1.00  0.00    -0.205 F 
ENDBRANCH   3  12
TORSDOF 3
ENDMDL
MODEL 4
REMARK VINA RESULT:    -7.250      3.391      4.827
REMARK INTER + INTRA:          -8.900
REMARK INTER:                  -8.347
REMARK INTRA:                  -0.553
REMARK UNBOUND:                -0.590
REMARK SMILES O=[N+]([O-])c1cc(-c2ccc(F)c(Cl)c2)ccc1O
REMARK SMILES IDX 4 1 5 2 6 3 15 4 16 5 17 6 2 7 1 8 3 9 18 10 7 12 8 13 14 14
REMARK SMILES IDX 9 15 12 16 10 17 13 18 11 19
REMARK H PARENT 18 11
ROOT
ATOM      1  C   UNL     1      24.036  -0.716  54.287  1.00  0.00    +0.311 A 
ATOM      2  C   UNL     1      23.859   0.004  53.097  1.00  0.00    +0.098 A 
ATOM      3  C   UNL     1      22.569   0.191  52.579  1.00  0.00    -0.011 A 
ATOM      4  C   UNL     1      21.484  -0.361  53.288  1.00  0.00    +0.013 A 
ATOM      5  C   UNL     1      21.672  -1.075  54.480  1.00  0.00    +0.054 A 
ATOM      6  C   UNL     1      22.957  -1.252  54.986  1.00  0.00    +0.194 A 
ENDROOT
BRANCH   1   7
ATOM      7  N   UNL     1      25.384  -0.892  54.782  1.00  0.00    +0.066 N 
ATOM      8  O   UNL     1      26.241  -1.235  53.955  1.00  0.00    -0.258 OA
ATOM      9  O   UNL     1      25.568  -0.755  55.999  1.00  0.00    -0.258 OA
ENDBRANCH   1   7
BRANCH   6  10
ATOM     10  O   UNL     1      23.141  -1.921  56.159  1.00  0.00    -0.502 OA
ATOM     11  H   UNL     1      24.044  -2.278  56.202  1.00  0.00    +0.293 HD
ENDBRANCH   6  10
BRANCH   3  12
ATOM     12  C   UNL     1      22.355   0.941  51.331  1.00  0.00    -0.016 A 
ATOM     13  C   UNL     1      21.257   0.654  50.498  1.00  0.00    +0.012 A 
ATOM     14  C   UNL     1      23.239   1.962  50.941  1.00  0.00    +0.032 A 
ATOM     15  C   UNL     1      21.051   1.365  49.312  1.00  0.00    +0.041 A 
ATOM     16  C   UNL     1      23.032   2.671  49.754  1.00  0.00    +0.077 A 
ATOM     17  C   UNL     1      21.940   2.369  48.947  1.00  0.00    +0.141 A 
ATOM     18 Cl   UNL     1      24.139   3.911  49.306  1.00  0.00    -0.081 Cl
ATOM     19  F   UNL     1      21.724   3.037  47.805  1.00  0.00    -0.205 F 
ENDBRANCH   3  12
TORSDOF 3
ENDMDL
MODEL 5
REMARK VINA RESULT:    -7.244      5.085      6.360
REMARK INTER + INTRA:          -8.893
REMARK INTER:                  -8.474
REMARK INTRA:                  -0.420
REMARK UNBOUND:                -0.590
REMARK SMILES O=[N+]([O-])c1cc(-c2ccc(F)c(Cl)c2)ccc1O
REMARK SMILES IDX 4 1 5 2 6 3 15 4 16 5 17 6 2 7 1 8 3 9 18 10 7 12 8 13 14 14
REMARK SMILES IDX 9 15 12 16 10 17 13 18 11 19
REMARK H PARENT 18 11
ROOT
ATOM      1  C   UNL     1      22.266  -0.282  53.670  1.00  0.00    +0.311 A 
ATOM      2  C   UNL     1      23.619  -0.647  53.717  1.00  0.00    +0.098 A 
ATOM      3  C   UNL     1      24.597   0.231  53.229  1.00  0.00    -0.011 A 
ATOM      4  C   UNL     1      24.174   1.468  52.704  1.00  0.00    +0.013 A 
ATOM      5  C   UNL     1      22.819   1.825  52.666  1.00  0.00    +0.054 A 
ATOM      6  C   UNL     1      21.857   0.946  53.156  1.00  0.00    +0.194 A 
ENDROOT
BRANCH   1   7
ATOM      7  N   UNL     1      21.289  -1.222  54.176  1.00  0.00    +0.066 N 
ATOM      8  O   UNL     1      20.186  -1.237  53.613  1.00  0.00    -0.258 OA
ATOM      9  O   UNL     1      21.602  -1.890  55.171  1.00  0.00    -0.258 OA
ENDBRANCH   1   7
BRANCH   6  10
ATOM     10  O   UNL     1      20.541   1.302  53.148  1.00  0.00    -0.502 OA
ATOM     11  H   UNL     1      20.219   1.372  52.233  1.00  0.00    +0.293 HD
ENDBRANCH   6  10
BRANCH   3  12
ATOM     12  C   UNL     1      26.024  -0.128  53.265  1.00  0.00    -0.016 A 
ATOM     13  C   UNL     1      26.466  -1.369  52.770  1.00  0.00    +0.012 A 
ATOM     14  C   UNL     1      26.980   0.759  53.792  1.00  0.00    +0.032 A 
ATOM     15  C   UNL     1      27.821  -1.713  52.802  1.00  0.00    +0.041 A 
ATOM     16  C   UNL     1      28.333   0.413  53.824  1.00  0.00    +0.077 A 
ATOM     17  C   UNL     1      28.746  -0.820  53.329  1.00  0.00    +0.141 A 
ATOM     18 Cl   UNL     1      29.473   1.522  54.482  1.00  0.00    -0.081 Cl
ATOM     19  F   UNL     1      30.040  -1.171  53.351  1.00  0.00    -0.205 F 
ENDBRANCH   3  12
TORSDOF 3
ENDMDL
MODEL 6
REMARK VINA RESULT:    -7.145      2.617      3.959
REMARK INTER + INTRA:          -8.780
REMARK INTER:                  -8.172
REMARK INTRA:                  -0.608
REMARK UNBOUND:                -0.590
REMARK SMILES O=[N+]([O-])c1cc(-c2ccc(F)c(Cl)c2)ccc1O
REMARK SMILES IDX 4 1 5 2 6 3 15 4 16 5 17 6 2 7 1 8 3 9 18 10 7 12 8 13 14 14
REMARK SMILES IDX 9 15 12 16 10 17 13 18 11 19
REMARK H PARENT 18 11
ROOT
ATOM      1  C   UNL     1      24.596  -0.539  54.161  1.00  0.00    +0.311 A 
ATOM      2  C   UNL     1      23.705  -0.101  53.170  1.00  0.00    +0.098 A 
ATOM      3  C   UNL     1      22.333  -0.358  53.303  1.00  0.00    -0.011 A 
ATOM      4  C   UNL     1      21.897  -1.055  54.447  1.00  0.00    +0.013 A 
ATOM      5  C   UNL     1      22.795  -1.483  55.433  1.00  0.00    +0.054 A 
ATOM      6  C   UNL     1      24.155  -1.221  55.293  1.00  0.00    +0.194 A 
ENDROOT
BRANCH   1   7
ATOM      7  N   UNL     1      26.004  -0.261  53.980  1.00  0.00    +0.066 N 
ATOM      8  O   UNL     1      26.338   0.932  53.950  1.00  0.00    -0.258 OA
ATOM      9  O   UNL     1      26.759  -1.227  53.803  1.00  0.00    -0.258 OA
ENDBRANCH   1   7
BRANCH   6  10
ATOM     10  O   UNL     1      25.029  -1.610  56.264  1.00  0.00    -0.502 OA
ATOM     11  H   UNL     1      25.037  -0.960  56.987  1.00  0.00    +0.293 HD
ENDBRANCH   6  10
BRANCH   3  12
ATOM     12  C   UNL     1      21.376   0.088  52.277  1.00  0.00    -0.016 A 
ATOM     13  C   UNL     1      19.993   0.089  52.534  1.00  0.00    +0.012 A 
ATOM     14  C   UNL     1      21.820   0.525  51.016  1.00  0.00    +0.032 A 
ATOM     15  C   UNL     1      19.081   0.512  51.562  1.00  0.00    +0.041 A 
ATOM     16  C   UNL     1      20.908   0.946  50.045  1.00  0.00    +0.077 A 
ATOM     17  C   UNL     1      19.544   0.937  50.323  1.00  0.00    +0.141 A 
ATOM     18 Cl   UNL     1      21.488   1.469  48.511  1.00  0.00    -0.081 Cl
ATOM     19  F   UNL     1      18.653   1.337  49.405  1.00  0.00    -0.205 F 
ENDBRANCH   3  12
TORSDOF 3
ENDMDL
MODEL 7
REMARK VINA RESULT:    -7.049      5.175      6.760
REMARK INTER + INTRA:          -8.670
REMARK INTER:                  -8.093
REMARK INTRA:                  -0.577
REMARK UNBOUND:                -0.590
REMARK SMILES O=[N+]([O-])c1cc(-c2ccc(F)c(Cl)c2)ccc1O
REMARK SMILES IDX 4 1 5 2 6 3 15 4 16 5 17 6 2 7 1 8 3 9 18 10 7 12 8 13 14 14
REMARK SMILES IDX 9 15 12 16 10 17 13 18 11 19
REMARK H PARENT 18 11
ROOT
ATOM      1  C   UNL     1      21.740  -0.116  53.058  1.00  0.00    +0.311 A 
ATOM      2  C   UNL     1      23.078   0.267  52.887  1.00  0.00    +0.098 A 
ATOM      3  C   UNL     1      24.054  -0.187  53.786  1.00  0.00    -0.011 A 
ATOM      4  C   UNL     1      23.644  -1.025  54.841  1.00  0.00    +0.013 A 
ATOM      5  C   UNL     1      22.305  -1.405  54.999  1.00  0.00    +0.054 A 
ATOM      6  C   UNL     1      21.345  -0.952  54.100  1.00  0.00    +0.194 A 
ENDROOT
BRANCH   1   7
ATOM      7  N   UNL     1      20.764   0.381  52.113  1.00  0.00    +0.066 N 
ATOM      8  O   UNL     1      21.014   0.212  50.911  1.00  0.00    -0.258 OA
ATOM      9  O   UNL     1      19.789   0.995  52.568  1.00  0.00    -0.258 OA
ENDBRANCH   1   7
BRANCH   6  10
ATOM     10  O   UNL     1      20.046  -1.343  54.233  1.00  0.00    -0.502 OA
ATOM     11  H   UNL     1      19.622  -0.855  54.959  1.00  0.00    +0.293 HD
ENDBRANCH   6  10
BRANCH   3  12
ATOM     12  C   UNL     1      25.465   0.202  53.631  1.00  0.00    -0.016 A 
ATOM     13  C   UNL     1      25.839   1.558  53.599  1.00  0.00    +0.012 A 
ATOM     14  C   UNL     1      26.474  -0.771  53.513  1.00  0.00    +0.032 A 
ATOM     15  C   UNL     1      27.180   1.930  53.453  1.00  0.00    +0.041 A 
ATOM     16  C   UNL     1      27.812  -0.397  53.367  1.00  0.00    +0.077 A 
ATOM     17  C   UNL     1      28.157   0.950  53.337  1.00  0.00    +0.141 A 
ATOM     18 Cl   UNL     1      29.019  -1.616  53.219  1.00  0.00    -0.081 Cl
ATOM     19  F   UNL     1      29.436   1.329  53.196  1.00  0.00    -0.205 F 
ENDBRANCH   3  12
TORSDOF 3
ENDMDL
MODEL 8
REMARK VINA RESULT:    -6.988      1.824      3.071
REMARK INTER + INTRA:          -8.600
REMARK INTER:                  -8.037
REMARK INTRA:                  -0.563
REMARK UNBOUND:                -0.590
REMARK SMILES O=[N+]([O-])c1cc(-c2ccc(F)c(Cl)c2)ccc1O
REMARK SMILES IDX 4 1 5 2 6 3 15 4 16 5 17 6 2 7 1 8 3 9 18 10 7 12 8 13 14 14
REMARK SMILES IDX 9 15 12 16 10 17 13 18 11 19
REMARK H PARENT 18 11
ROOT
ATOM      1  C   UNL     1      26.323   1.216  53.517  1.00  0.00    +0.311 A 
ATOM      2  C   UNL     1      25.146   1.383  52.774  1.00  0.00    +0.098 A 
ATOM      3  C   UNL     1      24.062   0.517  52.979  1.00  0.00    -0.011 A 
ATOM      4  C   UNL     1      24.200  -0.502  53.941  1.00  0.00    +0.013 A 
ATOM      5  C   UNL     1      25.380  -0.656  54.682  1.00  0.00    +0.054 A 
ATOM      6  C   UNL     1      26.449   0.210  54.472  1.00  0.00    +0.194 A 
ENDROOT
BRANCH   1   7
ATOM      7  N   UNL     1      27.420   2.125  53.268  1.00  0.00    +0.066 N 
ATOM      8  O   UNL     1      27.974   2.616  54.261  1.00  0.00    -0.258 OA
ATOM      9  O   UNL     1      27.680   2.397  52.087  1.00  0.00    -0.258 OA
ENDBRANCH   1   7
BRANCH   6  10
ATOM     10  O   UNL     1      27.587   0.081  55.212  1.00  0.00    -0.502 OA
ATOM     11  H   UNL     1      28.132  -0.644  54.863  1.00  0.00    +0.293 HD
ENDBRANCH   6  10
BRANCH   3  12
ATOM     12  C   UNL     1      22.816   0.669  52.210  1.00  0.00    -0.016 A 
ATOM     13  C   UNL     1      22.803   1.365  50.988  1.00  0.00    +0.012 A 
ATOM     14  C   UNL     1      21.607   0.121  52.678  1.00  0.00    +0.032 A 
ATOM     15  C   UNL     1      21.621   1.511  50.255  1.00  0.00    +0.041 A 
ATOM     16  C   UNL     1      20.427   0.268  51.945  1.00  0.00    +0.077 A 
ATOM     17  C   UNL     1      20.440   0.962  50.739  1.00  0.00    +0.141 A 
ATOM     18 Cl   UNL     1      18.966  -0.412  52.551  1.00  0.00    -0.081 Cl
ATOM     19  F   UNL     1      19.317   1.113  50.021  1.00  0.00    -0.205 F 
ENDBRANCH   3  12
TORSDOF 3
ENDMDL
MODEL 9
REMARK VINA RESULT:    -6.936      4.371      5.579
REMARK INTER + INTRA:          -8.540
REMARK INTER:                  -7.976
REMARK INTRA:                  -0.563
REMARK UNBOUND:                -0.590
REMARK SMILES O=[N+]([O-])c1cc(-c2ccc(F)c(Cl)c2)ccc1O
REMARK SMILES IDX 4 1 5 2 6 3 15 4 16 5 17 6 2 7 1 8 3 9 18 10 7 12 8 13 14 14
REMARK SMILES IDX 9 15 12 16 10 17 13 18 11 19
REMARK H PARENT 18 11
ROOT
ATOM      1  C   UNL     1      23.354  -0.456  54.283  1.00  0.00    +0.311 A 
ATOM      2  C   UNL     1      23.219   0.424  53.200  1.00  0.00    +0.098 A 
ATOM      3  C   UNL     1      24.362   0.927  52.562  1.00  0.00    -0.011 A 
ATOM      4  C   UNL     1      25.622   0.519  53.042  1.00  0.00    +0.013 A 
ATOM      5  C   UNL     1      25.745  -0.365  54.122  1.00  0.00    +0.054 A 
ATOM      6  C   UNL     1      24.604  -0.861  54.746  1.00  0.00    +0.194 A 
ENDROOT
BRANCH   1   7
ATOM      7  N   UNL     1      22.149  -0.945  54.917  1.00  0.00    +0.066 N 
ATOM      8  O   UNL     1      22.098  -2.159  55.157  1.00  0.00    -0.258 OA
ATOM      9  O   UNL     1      21.236  -0.131  55.112  1.00  0.00    -0.258 OA
ENDBRANCH   1   7
BRANCH   6  10
ATOM     10  O   UNL     1      24.719  -1.744  55.778  1.00  0.00    -0.502 OA
ATOM     11  H   UNL     1      23.854  -2.137  55.980  1.00  0.00    +0.293 HD
ENDBRANCH   6  10
BRANCH   3  12
ATOM     12  C   UNL     1      24.249   1.855  51.425  1.00  0.00    -0.016 A 
ATOM     13  C   UNL     1      23.001   2.114  50.829  1.00  0.00    +0.012 A 
ATOM     14  C   UNL     1      25.383   2.505  50.907  1.00  0.00    +0.032 A 
ATOM     15  C   UNL     1      22.891   2.995  49.748  1.00  0.00    +0.041 A 
ATOM     16  C   UNL     1      25.271   3.384  49.827  1.00  0.00    +0.077 A 
ATOM     17  C   UNL     1      24.026   3.624  49.254  1.00  0.00    +0.141 A 
ATOM     18 Cl   UNL     1      26.683   4.158  49.217  1.00  0.00    -0.081 Cl
ATOM     19  F   UNL     1      23.898   4.464  48.216  1.00  0.00    -0.205 F 
ENDBRANCH   3  12
TORSDOF 3
ENDMDL
