REMARK SMILES N#CC(=Cc1cccc(Br)c1)C(N)=C(C#N)C(N)=C(C#N)C#N
REMARK SMILES IDX 12 1 14 2 15 3 16 4 3 5 1 6 2 7 4 8 5 9 6 10 11 11 7 12 9 13
REMARK SMILES IDX 8 14 10 15 13 16 17 19 19 20 20 21 22 22 21 23 23 24 18 25
REMARK H PARENT 13 17 13 18 18 26 18 27
ROOT
ATOM      1  C   UNL     1      -1.172  -0.788   0.459  1.00  0.00    +0.070 C 
ATOM      2  C   UNL     1      -2.084  -0.164  -0.334  1.00  0.00    +0.101 C 
ATOM      3  C   UNL     1      -1.706   0.461  -1.571  1.00  0.00    +0.104 C 
ATOM      4  N   UNL     1      -1.383   0.983  -2.555  1.00  0.00    -0.192 NA
ENDROOT
BRANCH   1   5
ATOM      5  C   UNL     1       0.249  -0.826   0.073  1.00  0.00    +0.077 C 
ATOM      6  N   UNL     1       1.051  -2.966  -1.152  1.00  0.00    -0.192 NA
ATOM      7  C   UNL     1       0.705  -2.005  -0.601  1.00  0.00    +0.101 C 
ATOM      8  C   UNL     1       1.057   0.215   0.357  1.00  0.00    +0.029 C 
BRANCH   8   9
ATOM      9  C   UNL     1       2.477   0.304   0.000  1.00  0.00    -0.023 A 
ATOM     10  C   UNL     1       2.876   0.420  -1.337  1.00  0.00    +0.008 A 
ATOM     11  C   UNL     1       3.445   0.297   1.011  1.00  0.00    +0.023 A 
ATOM     12  C   UNL     1       4.231   0.511  -1.663  1.00  0.00    +0.002 A 
ATOM     13  C   UNL     1       4.796   0.389   0.677  1.00  0.00    +0.018 A 
ATOM     14  C   UNL     1       5.194   0.494  -0.655  1.00  0.00    +0.016 A 
ATOM     15 Br   UNL     1       6.101   0.372   2.045  1.00  0.00    -0.051 Br
ENDBRANCH   8   9
ENDBRANCH   1   5
BRANCH   1  16
ATOM     16  N   UNL     1      -1.469  -1.418   1.661  1.00  0.00    -0.397 N 
ATOM     17  H   UNL     1      -0.691  -1.481   2.319  1.00  0.00    +0.156 HD
ATOM     18  H   UNL     1      -2.345  -1.172   2.111  1.00  0.00    +0.156 HD
ENDBRANCH   1  16
BRANCH   2  19
ATOM     19  C   UNL     1      -3.516  -0.070   0.015  1.00  0.00    +0.081 C 
ATOM     20  C   UNL     1      -3.970   0.964   0.773  1.00  0.00    +0.153 C 
ATOM     21  C   UNL     1      -3.091   1.964   1.280  1.00  0.00    +0.113 C 
ATOM     22  C   UNL     1      -5.347   1.067   1.117  1.00  0.00    +0.113 C 
ATOM     23  N   UNL     1      -2.333   2.737   1.698  1.00  0.00    -0.192 NA
ATOM     24  N   UNL     1      -6.469   1.111   1.409  1.00  0.00    -0.192 NA
BRANCH  19  25
ATOM     25  N   UNL     1      -4.306  -1.095  -0.493  1.00  0.00    -0.396 N 
ATOM     26  H   UNL     1      -3.820  -1.980  -0.652  1.00  0.00    +0.156 HD
ATOM     27  H   UNL     1      -5.226  -1.232  -0.073  1.00  0.00    +0.156 HD
ENDBRANCH  19  25
ENDBRANCH   2  19
TORSDOF 5
