REMARK SMILES C[N+](C)(C)C[C@H](O)COc1ccc(-c2ccccc2Br)cn1
REMARK SMILES IDX 8 1 6 2 5 3 2 4 1 5 3 6 4 7 7 8 9 10 10 11 11 12 22 13 12 14
REMARK SMILES IDX 21 15 13 16 14 17 15 18 19 19 16 20 18 21 17 22 20 23
REMARK H PARENT 7 9
ROOT
ATOM      1  C   UNL     1      -1.742   0.623  -1.286  1.00  0.00    +0.269 C 
ENDROOT
BRANCH   1   2
ATOM      2  C   UNL     1      -2.017   1.148   0.127  1.00  0.00    +0.206 C 
BRANCH   2   3
ATOM      3  C   UNL     1      -2.715   0.146   1.073  1.00  0.00    +0.299 C 
BRANCH   3   4
ATOM      4  N   UNL     1      -4.168  -0.299   0.752  1.00  0.00    -0.329 N 
ATOM      5  C   UNL     1      -4.712  -0.991   2.010  1.00  0.00    +0.334 C 
ATOM      6  C   UNL     1      -5.076   0.889   0.446  1.00  0.00    +0.334 C 
ATOM      7  C   UNL     1      -4.231  -1.300  -0.389  1.00  0.00    +0.334 C 
ENDBRANCH   3   4
ENDBRANCH   2   3
BRANCH   2   8
ATOM      8  O   UNL     1      -2.748   2.382   0.056  1.00  0.00    -0.384 OA
ATOM      9  H   UNL     1      -2.184   3.009  -0.442  1.00  0.00    +0.211 HD
ENDBRANCH   2   8
ENDBRANCH   1   2
BRANCH   1  10
ATOM     10  O   UNL     1      -0.673   1.361  -1.893  1.00  0.00    -0.475 OA
BRANCH  10  11
ATOM     11  C   UNL     1       0.582   0.897  -1.544  1.00  0.00    +0.213 A 
ATOM     12  C   UNL     1       1.659   1.490  -2.179  1.00  0.00    +0.069 A 
ATOM     13  N   UNL     1       0.694  -0.059  -0.594  1.00  0.00    -0.221 NA
ATOM     14  C   UNL     1       2.942   1.077  -1.828  1.00  0.00    +0.016 A 
ATOM     15  C   UNL     1       1.959  -0.440  -0.280  1.00  0.00    +0.124 A 
ATOM     16  C   UNL     1       3.117   0.090  -0.852  1.00  0.00    +0.001 A 
BRANCH  16  17
ATOM     17  C   UNL     1       4.453  -0.369  -0.456  1.00  0.00    -0.003 A 
ATOM     18  C   UNL     1       5.181  -1.188  -1.339  1.00  0.00    +0.010 A 
ATOM     19  C   UNL     1       5.053  -0.029   0.773  1.00  0.00    +0.025 A 
ATOM     20  C   UNL     1       6.455  -1.656  -1.009  1.00  0.00    +0.001 A 
ATOM     21  C   UNL     1       6.330  -0.500   1.102  1.00  0.00    +0.016 A 
ATOM     22  C   UNL     1       7.028  -1.313   0.211  1.00  0.00    +0.001 A 
ATOM     23 Br   UNL     1       4.191   1.097   2.042  1.00  0.00    -0.050 Br
ENDBRANCH  16  17
ENDBRANCH  10  11
ENDBRANCH   1  10
TORSDOF 7
