REMARK SMILES Cc1cc(C=C(N)C(C#N)=C(C#N)C#N)[nH]c1N1CCOCC1
REMARK SMILES IDX 5 1 6 2 4 3 2 4 3 5 17 6 16 7 1 8 18 10 19 11 23 12 20 13
REMARK SMILES IDX 22 14 21 15 7 16 8 19 9 20 11 21 10 22 12 23 14 24 13 25
REMARK SMILES IDX 15 26
REMARK H PARENT 16 9 7 17 7 18
ROOT
ATOM      1  C   UNL     1       2.215  -0.165   0.425  1.00  0.00    +0.053 C 
ATOM      2  C   UNL     1       3.238  -0.174  -0.459  1.00  0.00    +0.054 C 
ENDROOT
BRANCH   1   3
ATOM      3  C   UNL     1       0.937   0.373   0.131  1.00  0.00    +0.042 A 
ATOM      4  C   UNL     1      -0.950   1.502  -0.449  1.00  0.00    -0.008 A 
ATOM      5  C   UNL     1       0.477   1.531  -0.457  1.00  0.00    +0.033 A 
ATOM      6  C   UNL     1      -1.328   0.313   0.159  1.00  0.00    +0.109 A 
ATOM      7  N   UNL     1      -0.170  -0.341   0.515  1.00  0.00    -0.342 N 
ATOM      8  C   UNL     1      -1.814   2.570  -1.021  1.00  0.00    +0.048 C 
ATOM      9  H   UNL     1      -0.153  -1.222   1.005  1.00  0.00    +0.168 HD
BRANCH   6  10
ATOM     10  N   UNL     1      -2.535  -0.241   0.460  1.00  0.00    -0.353 N 
ATOM     11  C   UNL     1      -2.731  -1.699   0.561  1.00  0.00    +0.146 C 
ATOM     12  C   UNL     1      -3.768   0.558   0.501  1.00  0.00    +0.146 C 
ATOM     13  C   UNL     1      -4.141  -2.087   0.086  1.00  0.00    +0.181 C 
ATOM     14  C   UNL     1      -4.839  -0.166   1.335  1.00  0.00    +0.181 C 
ATOM     15  O   UNL     1      -5.195  -1.462   0.831  1.00  0.00    -0.378 OA
ENDBRANCH   6  10
ENDBRANCH   1   3
BRANCH   2  16
ATOM     16  N   UNL     1       3.137   0.228  -1.789  1.00  0.00    -0.398 N 
ATOM     17  H   UNL     1       2.155   0.361  -2.049  1.00  0.00    +0.156 HD
ATOM     18  H   UNL     1       3.576   1.138  -1.944  1.00  0.00    +0.156 HD
ENDBRANCH   2  16
BRANCH   2  19
ATOM     19  C   UNL     1       4.536  -0.752  -0.052  1.00  0.00    +0.103 C 
ATOM     20  C   UNL     1       4.492  -2.085   0.475  1.00  0.00    +0.103 C 
ATOM     21  C   UNL     1       5.719  -0.107  -0.173  1.00  0.00    +0.149 C 
ATOM     22  N   UNL     1       4.446  -3.151   0.930  1.00  0.00    -0.192 NA
ATOM     23  C   UNL     1       6.947  -0.715   0.215  1.00  0.00    +0.112 C 
ATOM     24  C   UNL     1       5.787   1.222  -0.673  1.00  0.00    +0.112 C 
ATOM     25  N   UNL     1       7.947  -1.205   0.537  1.00  0.00    -0.192 NA
ATOM     26  N   UNL     1       5.794   2.304  -1.092  1.00  0.00    -0.192 NA
ENDBRANCH   2  19
TORSDOF 4
