REMARK SMILES Clc1cccc(-c2ccccc2)c1
REMARK SMILES IDX 1 1 2 2 3 3 4 4 5 5 6 6 13 7 7 8 8 9 12 10 9 11 11 12 10 13
REMARK H PARENT
ROOT
ATOM      1 Cl   UNL     1      -3.873   1.847  -1.546  1.00  0.00    -0.084 Cl
ATOM      2  C   UNL     1      -2.911   0.702  -0.694  1.00  0.00    +0.041 A 
ATOM      3  C   UNL     1      -3.526  -0.350  -0.021  1.00  0.00    +0.020 A 
ATOM      4  C   UNL     1      -2.745  -1.276   0.668  1.00  0.00    +0.002 A 
ATOM      5  C   UNL     1      -1.354  -1.143   0.679  1.00  0.00    +0.009 A 
ATOM      6  C   UNL     1      -0.718  -0.086   0.005  1.00  0.00    -0.017 A 
ATOM      7  C   UNL     1      -1.522   0.838  -0.683  1.00  0.00    +0.029 A 
ENDROOT
BRANCH   6   8
ATOM      8  C   UNL     1       0.748   0.050   0.021  1.00  0.00    -0.018 A 
ATOM      9  C   UNL     1       1.579  -1.015  -0.366  1.00  0.00    +0.009 A 
ATOM     10  C   UNL     1       1.360   1.250   0.423  1.00  0.00    +0.009 A 
ATOM     11  C   UNL     1       2.970  -0.887  -0.352  1.00  0.00    +0.001 A 
ATOM     12  C   UNL     1       2.752   1.379   0.438  1.00  0.00    +0.001 A 
ATOM     13  C   UNL     1       3.556   0.311   0.050  1.00  0.00    +0.000 A 
ENDBRANCH   6   8
TORSDOF 1
