REMARK SMILES N#CC(C#N)=C(C#N)C(N)=C(C#N)C(N)=Cc1ccccc1
REMARK SMILES IDX 9 1 11 2 12 3 13 4 6 5 1 6 2 7 3 8 4 9 5 10 7 11 8 12 10 13
REMARK SMILES IDX 14 16 16 17 15 18 17 21 18 22 22 23 19 24 21 25 20 26
REMARK H PARENT 10 14 10 15 15 19 15 20
ROOT
ATOM      1  C   UNL     1      -1.888  -1.295   0.486  1.00  0.00    +0.072 C 
ATOM      2  C   UNL     1      -1.279  -0.080   0.340  1.00  0.00    +0.099 C 
ATOM      3  C   UNL     1      -2.080   1.110   0.272  1.00  0.00    +0.104 C 
ATOM      4  N   UNL     1      -2.780   2.032   0.198  1.00  0.00    -0.192 NA
ENDROOT
BRANCH   1   5
ATOM      5  C   UNL     1      -3.358  -1.416   0.576  1.00  0.00    +0.105 C 
ATOM      6  N   UNL     1      -3.135  -1.596  -2.872  1.00  0.00    -0.192 NA
ATOM      7  C   UNL     1      -3.619  -1.561  -1.819  1.00  0.00    +0.112 C 
ATOM      8  C   UNL     1      -4.164  -1.530  -0.504  1.00  0.00    +0.149 C 
ATOM      9  C   UNL     1      -5.577  -1.649  -0.378  1.00  0.00    +0.112 C 
ATOM     10  N   UNL     1      -6.727  -1.760  -0.280  1.00  0.00    -0.192 NA
ATOM     11  C   UNL     1      -3.895  -1.408   1.905  1.00  0.00    +0.104 C 
ATOM     12  N   UNL     1      -4.333  -1.395   2.978  1.00  0.00    -0.192 NA
ENDBRANCH   1   5
BRANCH   1  13
ATOM     13  N   UNL     1      -1.203  -2.506   0.567  1.00  0.00    -0.396 N 
ATOM     14  H   UNL     1      -1.587  -3.259  -0.000  1.00  0.00    +0.156 HD
ATOM     15  H   UNL     1      -0.201  -2.385   0.360  1.00  0.00    +0.156 HD
ENDBRANCH   1  13
BRANCH   2  16
ATOM     16  C   UNL     1       0.196   0.084   0.251  1.00  0.00    +0.052 C 
ATOM     17  C   UNL     1       0.730   1.072  -0.502  1.00  0.00    +0.035 C 
BRANCH  16  18
ATOM     18  N   UNL     1       0.985  -0.812   0.973  1.00  0.00    -0.398 N 
ATOM     19  H   UNL     1       1.936  -0.464   1.109  1.00  0.00    +0.156 HD
ATOM     20  H   UNL     1       0.569  -1.052   1.875  1.00  0.00    +0.156 HD
ENDBRANCH  16  18
BRANCH  17  21
ATOM     21  C   UNL     1       2.167   1.329  -0.674  1.00  0.00    -0.024 A 
ATOM     22  C   UNL     1       2.704   2.547  -0.242  1.00  0.00    +0.008 A 
ATOM     23  C   UNL     1       3.003   0.389  -1.287  1.00  0.00    +0.008 A 
ATOM     24  C   UNL     1       4.065   2.813  -0.405  1.00  0.00    +0.001 A 
ATOM     25  C   UNL     1       4.364   0.656  -1.450  1.00  0.00    +0.001 A 
ATOM     26  C   UNL     1       4.894   1.867  -1.007  1.00  0.00    +0.000 A 
ENDBRANCH  17  21
ENDBRANCH   2  16
TORSDOF 5
