REMARK SMILES CCN(C(=O)c1ccccc1)c1[nH]c(C)cc1C
REMARK SMILES IDX 3 1 2 2 1 3 4 4 5 5 6 6 7 7 11 8 8 9 10 10 9 11 12 12 13 13
REMARK SMILES IDX 17 14 14 15 16 16 18 18 15 19
REMARK H PARENT 13 17
ROOT
ATOM      1  N   UNL     1      -0.053   1.234  -0.734  1.00  0.00    -0.294 N 
ENDROOT
BRANCH   1   2
ATOM      2  C   UNL     1       0.321   2.309  -1.659  1.00  0.00    +0.124 C 
ATOM      3  C   UNL     1       1.481   3.147  -1.139  1.00  0.00    +0.028 C 
ENDBRANCH   1   2
BRANCH   1   4
ATOM      4  C   UNL     1      -1.102   1.549   0.157  1.00  0.00    +0.259 C 
ATOM      5  O   UNL     1      -1.449   2.705   0.406  1.00  0.00    -0.269 OA
BRANCH   4   6
ATOM      6  C   UNL     1      -1.920   0.463   0.765  1.00  0.00    +0.040 A 
ATOM      7  C   UNL     1      -2.275  -0.681   0.039  1.00  0.00    +0.014 A 
ATOM      8  C   UNL     1      -2.380   0.625   2.078  1.00  0.00    +0.014 A 
ATOM      9  C   UNL     1      -3.048  -1.675   0.641  1.00  0.00    +0.001 A 
ATOM     10  C   UNL     1      -3.154  -0.371   2.675  1.00  0.00    +0.001 A 
ATOM     11  C   UNL     1      -3.482  -1.522   1.958  1.00  0.00    +0.000 A 
ENDBRANCH   4   6
ENDBRANCH   1   4
BRANCH   1  12
ATOM     12  C   UNL     1       0.758   0.094  -0.554  1.00  0.00    +0.116 A 
ATOM     13  N   UNL     1       0.851  -0.560   0.659  1.00  0.00    -0.345 N 
ATOM     14  C   UNL     1       1.644  -0.549  -1.416  1.00  0.00    -0.008 A 
ATOM     15  C   UNL     1       1.726  -1.611   0.588  1.00  0.00    +0.014 A 
ATOM     16  C   UNL     1       2.235  -1.625  -0.688  1.00  0.00    +0.028 A 
ATOM     17  H   UNL     1       0.372  -0.284   1.503  1.00  0.00    +0.168 HD
ATOM     18  C   UNL     1       1.942  -0.264  -2.845  1.00  0.00    +0.048 C 
ATOM     19  C   UNL     1       1.991  -2.485   1.756  1.00  0.00    +0.064 C 
ENDBRANCH   1  12
TORSDOF 4
