MODEL 1
REMARK VINA RESULT:    -7.408      0.000      0.000
REMARK INTER + INTRA:          -8.696
REMARK INTER:                  -8.274
REMARK INTRA:                  -0.421
REMARK UNBOUND:                -0.421
REMARK SMILES Cc1cc(N2CCOCC2)[nH]c1-c1ccccc1
REMARK SMILES IDX 1 1 2 2 3 3 4 4 11 5 12 6 13 8 14 9 18 10 15 11 17 12 16 13
REMARK SMILES IDX 5 14 6 15 10 16 7 17 9 18 8 19
REMARK H PARENT 11 7
ROOT
ATOM      1  C   UNL     1      26.471   2.429  50.956  1.00  0.00    +0.047 C 
ATOM      2  C   UNL     1      25.605   1.529  51.766  1.00  0.00    -0.023 A 
ATOM      3  C   UNL     1      24.180   1.547  51.790  1.00  0.00    +0.050 A 
ATOM      4  C   UNL     1      23.742   0.584  52.673  1.00  0.00    +0.106 A 
ATOM      5  N   UNL     1      24.866  -0.026  53.168  1.00  0.00    -0.341 N 
ATOM      6  C   UNL     1      26.010   0.530  52.639  1.00  0.00    +0.050 A 
ATOM      7  H   UNL     1      24.862  -0.812  53.798  1.00  0.00    +0.168 HD
ENDROOT
BRANCH   6   8
ATOM      8  C   UNL     1      27.339   0.043  53.002  1.00  0.00    -0.002 A 
ATOM      9  C   UNL     1      28.300   0.920  53.521  1.00  0.00    +0.010 A 
ATOM     10  C   UNL     1      27.669  -1.309  52.844  1.00  0.00    +0.010 A 
ATOM     11  C   UNL     1      29.569   0.452  53.875  1.00  0.00    +0.001 A 
ATOM     12  C   UNL     1      28.936  -1.777  53.199  1.00  0.00    +0.001 A 
ATOM     13  C   UNL     1      29.885  -0.896  53.714  1.00  0.00    +0.000 A 
ENDBRANCH   6   8
BRANCH   4  14
ATOM     14  N   UNL     1      22.492   0.197  53.044  1.00  0.00    -0.354 N 
ATOM     15  C   UNL     1      21.296   1.027  52.834  1.00  0.00    +0.146 C 
ATOM     16  C   UNL     1      22.234  -1.184  53.482  1.00  0.00    +0.146 C 
ATOM     17  C   UNL     1      20.070   0.141  52.552  1.00  0.00    +0.181 C 
ATOM     18  C   UNL     1      20.938  -1.239  54.307  1.00  0.00    +0.181 C 
ATOM     19  O   UNL     1      19.772  -0.791  53.601  1.00  0.00    -0.378 OA
ENDBRANCH   4  14
TORSDOF 2
ENDMDL
MODEL 2
REMARK VINA RESULT:    -6.911      2.322      3.319
REMARK INTER + INTRA:          -8.141
REMARK INTER:                  -7.634
REMARK INTRA:                  -0.506
REMARK UNBOUND:                -0.421
REMARK SMILES Cc1cc(N2CCOCC2)[nH]c1-c1ccccc1
REMARK SMILES IDX 1 1 2 2 3 3 4 4 11 5 12 6 13 8 14 9 18 10 15 11 17 12 16 13
REMARK SMILES IDX 5 14 6 15 10 16 7 17 9 18 8 19
REMARK H PARENT 11 7
ROOT
ATOM      1  C   UNL     1      24.613  -1.058  55.026  1.00  0.00    +0.047 C 
ATOM      2  C   UNL     1      24.679  -0.207  53.808  1.00  0.00    -0.023 A 
ATOM      3  C   UNL     1      23.572   0.439  53.184  1.00  0.00    +0.050 A 
ATOM      4  C   UNL     1      24.027   1.114  52.071  1.00  0.00    +0.106 A 
ATOM      5  N   UNL     1      25.381   0.908  52.020  1.00  0.00    -0.341 N 
ATOM      6  C   UNL     1      25.804   0.106  53.057  1.00  0.00    +0.050 A 
ATOM      7  H   UNL     1      26.000   1.326  51.344  1.00  0.00    +0.168 HD
ENDROOT
BRANCH   6   8
ATOM      8  C   UNL     1      27.210  -0.250  53.229  1.00  0.00    -0.002 A 
ATOM      9  C   UNL     1      28.133   0.699  53.686  1.00  0.00    +0.010 A 
ATOM     10  C   UNL     1      27.654  -1.548  52.946  1.00  0.00    +0.010 A 
ATOM     11  C   UNL     1      29.477   0.356  53.857  1.00  0.00    +0.001 A 
ATOM     12  C   UNL     1      28.997  -1.892  53.119  1.00  0.00    +0.001 A 
ATOM     13  C   UNL     1      29.908  -0.939  53.574  1.00  0.00    +0.000 A 
ENDBRANCH   6   8
BRANCH   4  14
ATOM     14  N   UNL     1      23.381   1.885  51.154  1.00  0.00    -0.354 N 
ATOM     15  C   UNL     1      23.971   3.092  50.556  1.00  0.00    +0.146 C 
ATOM     16  C   UNL     1      22.127   1.422  50.538  1.00  0.00    +0.146 C 
ATOM     17  C   UNL     1      23.493   3.261  49.104  1.00  0.00    +0.181 C 
ATOM     18  C   UNL     1      21.352   2.620  49.966  1.00  0.00    +0.181 C 
ATOM     19  O   UNL     1      22.070   3.362  48.968  1.00  0.00    -0.378 OA
ENDBRANCH   4  14
TORSDOF 2
ENDMDL
MODEL 3
REMARK VINA RESULT:    -6.792      3.741      6.393
REMARK INTER + INTRA:          -8.008
REMARK INTER:                  -7.726
REMARK INTRA:                  -0.283
REMARK UNBOUND:                -0.421
REMARK SMILES Cc1cc(N2CCOCC2)[nH]c1-c1ccccc1
REMARK SMILES IDX 1 1 2 2 3 3 4 4 11 5 12 6 13 8 14 9 18 10 15 11 17 12 16 13
REMARK SMILES IDX 5 14 6 15 10 16 7 17 9 18 8 19
REMARK H PARENT 11 7
ROOT
ATOM      1  C   UNL     1      23.543   3.820  49.042  1.00  0.00    +0.047 C 
ATOM      2  C   UNL     1      24.705   3.401  49.871  1.00  0.00    -0.023 A 
ATOM      3  C   UNL     1      24.718   2.318  50.797  1.00  0.00    +0.050 A 
ATOM      4  C   UNL     1      25.962   2.257  51.388  1.00  0.00    +0.106 A 
ATOM      5  N   UNL     1      26.705   3.264  50.827  1.00  0.00    -0.341 N 
ATOM      6  C   UNL     1      25.967   3.978  49.908  1.00  0.00    +0.050 A 
ATOM      7  H   UNL     1      27.678   3.435  51.020  1.00  0.00    +0.168 HD
ENDROOT
BRANCH   6   8
ATOM      8  C   UNL     1      26.540   5.097  49.165  1.00  0.00    -0.002 A 
ATOM      9  C   UNL     1      25.799   6.267  48.958  1.00  0.00    +0.010 A 
ATOM     10  C   UNL     1      27.843   5.019  48.656  1.00  0.00    +0.010 A 
ATOM     11  C   UNL     1      26.351   7.340  48.252  1.00  0.00    +0.001 A 
ATOM     12  C   UNL     1      28.395   6.092  47.953  1.00  0.00    +0.001 A 
ATOM     13  C   UNL     1      27.648   7.252  47.751  1.00  0.00    +0.000 A 
ENDBRANCH   6   8
BRANCH   4  14
ATOM     14  N   UNL     1      26.483   1.411  52.317  1.00  0.00    -0.354 N 
ATOM     15  C   UNL     1      26.738   1.803  53.711  1.00  0.00    +0.146 C 
ATOM     16  C   UNL     1      26.615  -0.026  52.030  1.00  0.00    +0.146 C 
ATOM     17  C   UNL     1      26.514   0.609  54.655  1.00  0.00    +0.181 C 
ATOM     18  C   UNL     1      27.657  -0.655  52.970  1.00  0.00    +0.181 C 
ATOM     19  O   UNL     1      27.343  -0.525  54.365  1.00  0.00    -0.378 OA
ENDBRANCH   4  14
TORSDOF 2
ENDMDL
MODEL 4
REMARK VINA RESULT:    -6.784      2.760      6.887
REMARK INTER + INTRA:          -7.998
REMARK INTER:                  -7.483
REMARK INTRA:                  -0.515
REMARK UNBOUND:                -0.421
REMARK SMILES Cc1cc(N2CCOCC2)[nH]c1-c1ccccc1
REMARK SMILES IDX 1 1 2 2 3 3 4 4 11 5 12 6 13 8 14 9 18 10 15 11 17 12 16 13
REMARK SMILES IDX 5 14 6 15 10 16 7 17 9 18 8 19
REMARK H PARENT 11 7
ROOT
ATOM      1  C   UNL     1      21.704  -1.563  54.416  1.00  0.00    +0.047 C 
ATOM      2  C   UNL     1      22.837  -0.727  53.935  1.00  0.00    -0.023 A 
ATOM      3  C   UNL     1      24.190  -0.829  54.372  1.00  0.00    +0.050 A 
ATOM      4  C   UNL     1      24.937   0.125  53.716  1.00  0.00    +0.106 A 
ATOM      5  N   UNL     1      24.074   0.786  52.881  1.00  0.00    -0.341 N 
ATOM      6  C   UNL     1      22.792   0.294  52.997  1.00  0.00    +0.050 A 
ATOM      7  H   UNL     1      24.343   1.505  52.229  1.00  0.00    +0.168 HD
ENDROOT
BRANCH   6   8
ATOM      8  C   UNL     1      21.690   0.828  52.200  1.00  0.00    -0.002 A 
ATOM      9  C   UNL     1      21.554   0.477  50.851  1.00  0.00    +0.010 A 
ATOM     10  C   UNL     1      20.749   1.690  52.776  1.00  0.00    +0.010 A 
ATOM     11  C   UNL     1      20.496   0.982  50.090  1.00  0.00    +0.001 A 
ATOM     12  C   UNL     1      19.689   2.193  52.017  1.00  0.00    +0.001 A 
ATOM     13  C   UNL     1      19.564   1.839  50.674  1.00  0.00    +0.000 A 
ENDBRANCH   6   8
BRANCH   4  14
ATOM     14  N   UNL     1      26.262   0.431  53.769  1.00  0.00    -0.354 N 
ATOM     15  C   UNL     1      26.960   1.179  52.713  1.00  0.00    +0.146 C 
ATOM     16  C   UNL     1      27.030   0.218  55.006  1.00  0.00    +0.146 C 
ATOM     17  C   UNL     1      28.070   2.055  53.319  1.00  0.00    +0.181 C 
ATOM     18  C   UNL     1      28.532   0.141  54.684  1.00  0.00    +0.181 C 
ATOM     19  O   UNL     1      29.058   1.317  54.052  1.00  0.00    -0.378 OA
ENDBRANCH   4  14
TORSDOF 2
ENDMDL
MODEL 5
REMARK VINA RESULT:    -6.705      2.748      4.152
REMARK INTER + INTRA:          -7.910
REMARK INTER:                  -7.448
REMARK INTRA:                  -0.463
REMARK UNBOUND:                -0.421
REMARK SMILES Cc1cc(N2CCOCC2)[nH]c1-c1ccccc1
REMARK SMILES IDX 1 1 2 2 3 3 4 4 11 5 12 6 13 8 14 9 18 10 15 11 17 12 16 13
REMARK SMILES IDX 5 14 6 15 10 16 7 17 9 18 8 19
REMARK H PARENT 11 7
ROOT
ATOM      1  C   UNL     1      24.008  -0.851  54.526  1.00  0.00    +0.047 C 
ATOM      2  C   UNL     1      24.406   0.145  53.495  1.00  0.00    -0.023 A 
ATOM      3  C   UNL     1      23.576   1.180  52.974  1.00  0.00    +0.050 A 
ATOM      4  C   UNL     1      24.288   1.881  52.025  1.00  0.00    +0.106 A 
ATOM      5  N   UNL     1      25.532   1.307  51.974  1.00  0.00    -0.341 N 
ATOM      6  C   UNL     1      25.631   0.248  52.850  1.00  0.00    +0.050 A 
ATOM      7  H   UNL     1      26.295   1.641  51.408  1.00  0.00    +0.168 HD
ENDROOT
BRANCH   6   8
ATOM      8  C   UNL     1      26.865  -0.521  52.989  1.00  0.00    -0.002 A 
ATOM      9  C   UNL     1      26.893  -1.883  52.667  1.00  0.00    +0.010 A 
ATOM     10  C   UNL     1      28.040   0.095  53.439  1.00  0.00    +0.010 A 
ATOM     11  C   UNL     1      28.076  -2.617  52.794  1.00  0.00    +0.001 A 
ATOM     12  C   UNL     1      29.222  -0.637  53.564  1.00  0.00    +0.001 A 
ATOM     13  C   UNL     1      29.239  -1.993  53.242  1.00  0.00    +0.000 A 
ENDBRANCH   6   8
BRANCH   4  14
ATOM     14  N   UNL     1      23.958   2.952  51.254  1.00  0.00    -0.354 N 
ATOM     15  C   UNL     1      23.021   3.999  51.687  1.00  0.00    +0.146 C 
ATOM     16  C   UNL     1      24.698   3.239  50.015  1.00  0.00    +0.146 C 
ATOM     17  C   UNL     1      23.435   5.363  51.108  1.00  0.00    +0.181 C 
ATOM     18  C   UNL     1      23.853   4.134  49.094  1.00  0.00    +0.181 C 
ATOM     19  O   UNL     1      23.487   5.395  49.675  1.00  0.00    -0.378 OA
ENDBRANCH   4  14
TORSDOF 2
ENDMDL
MODEL 6
REMARK VINA RESULT:    -6.699      3.233      6.427
REMARK INTER + INTRA:          -7.904
REMARK INTER:                  -7.394
REMARK INTRA:                  -0.510
REMARK UNBOUND:                -0.421
REMARK SMILES Cc1cc(N2CCOCC2)[nH]c1-c1ccccc1
REMARK SMILES IDX 1 1 2 2 3 3 4 4 11 5 12 6 13 8 14 9 18 10 15 11 17 12 16 13
REMARK SMILES IDX 5 14 6 15 10 16 7 17 9 18 8 19
REMARK H PARENT 11 7
ROOT
ATOM      1  C   UNL     1      23.229   4.429  52.598  1.00  0.00    +0.047 C 
ATOM      2  C   UNL     1      24.032   3.185  52.452  1.00  0.00    -0.023 A 
ATOM      3  C   UNL     1      25.032   2.729  53.360  1.00  0.00    +0.050 A 
ATOM      4  C   UNL     1      25.567   1.556  52.874  1.00  0.00    +0.106 A 
ATOM      5  N   UNL     1      24.902   1.282  51.706  1.00  0.00    -0.341 N 
ATOM      6  C   UNL     1      23.969   2.256  51.423  1.00  0.00    +0.050 A 
ATOM      7  H   UNL     1      25.037   0.455  51.149  1.00  0.00    +0.168 HD
ENDROOT
BRANCH   6   8
ATOM      8  C   UNL     1      23.121   2.185  50.235  1.00  0.00    -0.002 A 
ATOM      9  C   UNL     1      23.411   2.964  49.108  1.00  0.00    +0.010 A 
ATOM     10  C   UNL     1      22.012   1.331  50.204  1.00  0.00    +0.010 A 
ATOM     11  C   UNL     1      22.604   2.891  47.969  1.00  0.00    +0.001 A 
ATOM     12  C   UNL     1      21.206   1.256  49.065  1.00  0.00    +0.001 A 
ATOM     13  C   UNL     1      21.503   2.036  47.949  1.00  0.00    +0.000 A 
ENDBRANCH   6   8
BRANCH   4  14
ATOM     14  N   UNL     1      26.530   0.729  53.363  1.00  0.00    -0.354 N 
ATOM     15  C   UNL     1      26.475  -0.736  53.239  1.00  0.00    +0.146 C 
ATOM     16  C   UNL     1      27.804   1.274  53.857  1.00  0.00    +0.146 C 
ATOM     17  C   UNL     1      27.892  -1.315  53.089  1.00  0.00    +0.181 C 
ATOM     18  C   UNL     1      28.480   0.260  54.795  1.00  0.00    +0.181 C 
ATOM     19  O   UNL     1      28.766  -1.007  54.183  1.00  0.00    -0.378 OA
ENDBRANCH   4  14
TORSDOF 2
ENDMDL
MODEL 7
REMARK VINA RESULT:    -6.646      2.609      6.498
REMARK INTER + INTRA:          -7.845
REMARK INTER:                  -7.333
REMARK INTRA:                  -0.512
REMARK UNBOUND:                -0.421
REMARK SMILES Cc1cc(N2CCOCC2)[nH]c1-c1ccccc1
REMARK SMILES IDX 1 1 2 2 3 3 4 4 11 5 12 6 13 8 14 9 18 10 15 11 17 12 16 13
REMARK SMILES IDX 5 14 6 15 10 16 7 17 9 18 8 19
REMARK H PARENT 11 7
ROOT
ATOM      1  C   UNL     1      23.722   3.649  52.750  1.00  0.00    +0.047 C 
ATOM      2  C   UNL     1      24.396   2.326  52.854  1.00  0.00    -0.023 A 
ATOM      3  C   UNL     1      25.800   2.115  52.969  1.00  0.00    +0.050 A 
ATOM      4  C   UNL     1      26.039   0.758  53.018  1.00  0.00    +0.106 A 
ATOM      5  N   UNL     1      24.813   0.147  52.956  1.00  0.00    -0.341 N 
ATOM      6  C   UNL     1      23.799   1.073  52.850  1.00  0.00    +0.050 A 
ATOM      7  H   UNL     1      24.663  -0.846  53.026  1.00  0.00    +0.168 HD
ENDROOT
BRANCH   6   8
ATOM      8  C   UNL     1      22.396   0.671  52.779  1.00  0.00    -0.002 A 
ATOM      9  C   UNL     1      21.713   0.689  51.556  1.00  0.00    +0.010 A 
ATOM     10  C   UNL     1      21.717   0.253  53.930  1.00  0.00    +0.010 A 
ATOM     11  C   UNL     1      20.373   0.297  51.487  1.00  0.00    +0.001 A 
ATOM     12  C   UNL     1      20.379  -0.141  53.861  1.00  0.00    +0.001 A 
ATOM     13  C   UNL     1      19.708  -0.118  52.640  1.00  0.00    +0.000 A 
ENDBRANCH   6   8
BRANCH   4  14
ATOM     14  N   UNL     1      27.192   0.045  53.136  1.00  0.00    -0.354 N 
ATOM     15  C   UNL     1      28.491   0.659  53.451  1.00  0.00    +0.146 C 
ATOM     16  C   UNL     1      27.163  -1.425  53.171  1.00  0.00    +0.146 C 
ATOM     17  C   UNL     1      29.348  -0.300  54.294  1.00  0.00    +0.181 C 
ATOM     18  C   UNL     1      28.544  -1.986  52.794  1.00  0.00    +0.181 C 
ATOM     19  O   UNL     1      29.608  -1.559  53.659  1.00  0.00    -0.378 OA
ENDBRANCH   4  14
TORSDOF 2
ENDMDL
MODEL 8
REMARK VINA RESULT:    -6.644      2.034      3.440
REMARK INTER + INTRA:          -7.842
REMARK INTER:                  -7.330
REMARK INTRA:                  -0.512
REMARK UNBOUND:                -0.421
REMARK SMILES Cc1cc(N2CCOCC2)[nH]c1-c1ccccc1
REMARK SMILES IDX 1 1 2 2 3 3 4 4 11 5 12 6 13 8 14 9 18 10 15 11 17 12 16 13
REMARK SMILES IDX 5 14 6 15 10 16 7 17 9 18 8 19
REMARK H PARENT 11 7
ROOT
ATOM      1  C   UNL     1      23.238  -1.555  55.561  1.00  0.00    +0.047 C 
ATOM      2  C   UNL     1      23.042  -0.821  54.282  1.00  0.00    -0.023 A 
ATOM      3  C   UNL     1      21.785  -0.504  53.689  1.00  0.00    +0.050 A 
ATOM      4  C   UNL     1      22.013   0.159  52.502  1.00  0.00    +0.106 A 
ATOM      5  N   UNL     1      23.374   0.265  52.373  1.00  0.00    -0.341 N 
ATOM      6  C   UNL     1      24.024  -0.325  53.435  1.00  0.00    +0.050 A 
ATOM      7  H   UNL     1      23.844   0.753  51.628  1.00  0.00    +0.168 HD
ENDROOT
BRANCH   6   8
ATOM      8  C   UNL     1      25.481  -0.333  53.535  1.00  0.00    -0.002 A 
ATOM      9  C   UNL     1      26.239  -1.260  52.809  1.00  0.00    +0.010 A 
ATOM     10  C   UNL     1      26.142   0.592  54.353  1.00  0.00    +0.010 A 
ATOM     11  C   UNL     1      27.633  -1.262  52.899  1.00  0.00    +0.001 A 
ATOM     12  C   UNL     1      27.536   0.591  54.442  1.00  0.00    +0.001 A 
ATOM     13  C   UNL     1      28.281  -0.336  53.716  1.00  0.00    +0.000 A 
ENDBRANCH   6   8
BRANCH   4  14
ATOM     14  N   UNL     1      21.161   0.677  51.577  1.00  0.00    -0.354 N 
ATOM     15  C   UNL     1      21.606   1.498  50.441  1.00  0.00    +0.146 C 
ATOM     16  C   UNL     1      19.752   0.256  51.538  1.00  0.00    +0.146 C 
ATOM     17  C   UNL     1      20.708   1.253  49.216  1.00  0.00    +0.181 C 
ATOM     18  C   UNL     1      18.909   1.308  50.798  1.00  0.00    +0.181 C 
ATOM     19  O   UNL     1      19.322   1.542  49.443  1.00  0.00    -0.378 OA
ENDBRANCH   4  14
TORSDOF 2
ENDMDL
MODEL 9
REMARK VINA RESULT:    -6.368      3.099      4.126
REMARK INTER + INTRA:          -7.534
REMARK INTER:                  -7.040
REMARK INTRA:                  -0.494
REMARK UNBOUND:                -0.421
REMARK SMILES Cc1cc(N2CCOCC2)[nH]c1-c1ccccc1
REMARK SMILES IDX 1 1 2 2 3 3 4 4 11 5 12 6 13 8 14 9 18 10 15 11 17 12 16 13
REMARK SMILES IDX 5 14 6 15 10 16 7 17 9 18 8 19
REMARK H PARENT 11 7
ROOT
ATOM      1  C   UNL     1      23.003  -0.836  53.473  1.00  0.00    +0.047 C 
ATOM      2  C   UNL     1      23.417   0.504  52.978  1.00  0.00    -0.023 A 
ATOM      3  C   UNL     1      22.540   1.527  52.512  1.00  0.00    +0.050 A 
ATOM      4  C   UNL     1      23.295   2.610  52.118  1.00  0.00    +0.106 A 
ATOM      5  N   UNL     1      24.604   2.274  52.351  1.00  0.00    -0.341 N 
ATOM      6  C   UNL     1      24.709   1.001  52.867  1.00  0.00    +0.050 A 
ATOM      7  H   UNL     1      25.388   2.891  52.212  1.00  0.00    +0.168 HD
ENDROOT
BRANCH   6   8
ATOM      8  C   UNL     1      26.002   0.416  53.212  1.00  0.00    -0.002 A 
ATOM      9  C   UNL     1      26.729   0.895  54.309  1.00  0.00    +0.010 A 
ATOM     10  C   UNL     1      26.530  -0.638  52.455  1.00  0.00    +0.010 A 
ATOM     11  C   UNL     1      27.963   0.330  54.643  1.00  0.00    +0.001 A 
ATOM     12  C   UNL     1      27.762  -1.204  52.790  1.00  0.00    +0.001 A 
ATOM     13  C   UNL     1      28.478  -0.719  53.883  1.00  0.00    +0.000 A 
ENDBRANCH   6   8
BRANCH   4  14
ATOM     14  N   UNL     1      22.943   3.825  51.617  1.00  0.00    -0.354 N 
ATOM     15  C   UNL     1      21.862   4.011  50.637  1.00  0.00    +0.146 C 
ATOM     16  C   UNL     1      23.486   5.061  52.201  1.00  0.00    +0.146 C 
ATOM     17  C   UNL     1      21.155   5.358  50.866  1.00  0.00    +0.181 C 
ATOM     18  C   UNL     1      23.369   6.214  51.190  1.00  0.00    +0.181 C 
ATOM     19  O   UNL     1      22.024   6.494  50.772  1.00  0.00    -0.378 OA
ENDBRANCH   4  14
TORSDOF 2
ENDMDL
