MODEL 1
REMARK VINA RESULT:    -8.418      0.000      0.000
REMARK INTER + INTRA:         -10.477
REMARK INTER:                 -10.141
REMARK INTRA:                  -0.336
REMARK UNBOUND:                -0.336
REMARK SMILES Cc1cc(C=C(N)C(C#N)=C(C#N)C#N)[nH]c1-c1ccc(F)c(Cl)c1
REMARK SMILES IDX 1 1 2 2 3 3 4 4 16 5 17 6 18 8 19 9 25 10 20 11 23 12 21 13
REMARK SMILES IDX 24 14 22 15 5 16 6 17 7 18 8 21 9 22 11 23 10 24 12 25 14 26
REMARK SMILES IDX 13 27 15 28
REMARK H PARENT 16 7 7 19 7 20
ROOT
ATOM      1  C   UNL     1      21.112   3.768  52.265  1.00  0.00    +0.047 C 
ATOM      2  C   UNL     1      21.877   2.497  52.387  1.00  0.00    -0.025 A 
ATOM      3  C   UNL     1      23.250   2.390  52.750  1.00  0.00    +0.031 A 
ATOM      4  C   UNL     1      23.587   1.054  52.775  1.00  0.00    +0.041 A 
ATOM      5  N   UNL     1      22.467   0.349  52.411  1.00  0.00    -0.355 N 
ATOM      6  C   UNL     1      21.409   1.205  52.184  1.00  0.00    +0.049 A 
ATOM      7  H   UNL     1      22.411  -0.657  52.325  1.00  0.00    +0.167 HD
ENDROOT
BRANCH   6   8
ATOM      8  C   UNL     1      20.092   0.711  51.786  1.00  0.00    -0.000 A 
ATOM      9  C   UNL     1      19.531   1.093  50.559  1.00  0.00    +0.013 A 
ATOM     10  C   UNL     1      19.374  -0.149  52.629  1.00  0.00    +0.034 A 
ATOM     11  C   UNL     1      18.272   0.622  50.178  1.00  0.00    +0.041 A 
ATOM     12  C   UNL     1      18.116  -0.619  52.246  1.00  0.00    +0.077 A 
ATOM     13  C   UNL     1      17.572  -0.231  51.025  1.00  0.00    +0.141 A 
ATOM     14 Cl   UNL     1      17.252  -1.673  53.298  1.00  0.00    -0.081 Cl
ATOM     15  F   UNL     1      16.365  -0.672  50.640  1.00  0.00    -0.205 F 
ENDBRANCH   6   8
BRANCH   4  16
ATOM     16  C   UNL     1      24.773   0.327  53.045  1.00  0.00    +0.053 C 
ATOM     17  C   UNL     1      25.950   0.565  52.422  1.00  0.00    +0.054 C 
BRANCH  17  18
ATOM     18  N   UNL     1      26.175   1.612  51.534  1.00  0.00    -0.398 N 
ATOM     19  H   UNL     1      25.853   1.398  50.588  1.00  0.00    +0.156 HD
ATOM     20  H   UNL     1      25.663   2.450  51.818  1.00  0.00    +0.156 HD
ENDBRANCH  17  18
BRANCH  17  21
ATOM     21  C   UNL     1      27.125  -0.257  52.775  1.00  0.00    +0.103 C 
ATOM     22  C   UNL     1      27.037  -1.650  52.441  1.00  0.00    +0.103 C 
ATOM     23  C   UNL     1      28.228   0.228  53.390  1.00  0.00    +0.149 C 
ATOM     24  N   UNL     1      26.973  -2.767  52.140  1.00  0.00    -0.192 NA
ATOM     25  C   UNL     1      29.331  -0.609  53.724  1.00  0.00    +0.112 C 
ATOM     26  C   UNL     1      28.345   1.607  53.713  1.00  0.00    +0.112 C 
ATOM     27  N   UNL     1      30.232  -1.288  53.989  1.00  0.00    -0.192 NA
ATOM     28  N   UNL     1      28.386   2.739  53.968  1.00  0.00    -0.192 NA
ENDBRANCH  17  21
ENDBRANCH   4  16
TORSDOF 4
ENDMDL
MODEL 2
REMARK VINA RESULT:    -8.268      4.329      8.404
REMARK INTER + INTRA:         -10.296
REMARK INTER:                  -9.755
REMARK INTRA:                  -0.541
REMARK UNBOUND:                -0.336
REMARK SMILES Cc1cc(C=C(N)C(C#N)=C(C#N)C#N)[nH]c1-c1ccc(F)c(Cl)c1
REMARK SMILES IDX 1 1 2 2 3 3 4 4 16 5 17 6 18 8 19 9 25 10 20 11 23 12 21 13
REMARK SMILES IDX 24 14 22 15 5 16 6 17 7 18 8 21 9 22 11 23 10 24 12 25 14 26
REMARK SMILES IDX 13 27 15 28
REMARK H PARENT 16 7 7 19 7 20
ROOT
ATOM      1  C   UNL     1      25.907   3.553  50.381  1.00  0.00    +0.047 C 
ATOM      2  C   UNL     1      25.011   2.497  50.927  1.00  0.00    -0.025 A 
ATOM      3  C   UNL     1      23.624   2.357  50.635  1.00  0.00    +0.031 A 
ATOM      4  C   UNL     1      23.151   1.253  51.312  1.00  0.00    +0.041 A 
ATOM      5  N   UNL     1      24.203   0.737  52.027  1.00  0.00    -0.355 N 
ATOM      6  C   UNL     1      25.350   1.469  51.798  1.00  0.00    +0.049 A 
ATOM      7  H   UNL     1      24.157  -0.070  52.635  1.00  0.00    +0.167 HD
ENDROOT
BRANCH   6   8
ATOM      8  C   UNL     1      26.620   1.129  52.437  1.00  0.00    -0.000 A 
ATOM      9  C   UNL     1      27.411   2.129  53.021  1.00  0.00    +0.013 A 
ATOM     10  C   UNL     1      27.062  -0.201  52.470  1.00  0.00    +0.034 A 
ATOM     11  C   UNL     1      28.625   1.804  53.631  1.00  0.00    +0.041 A 
ATOM     12  C   UNL     1      28.275  -0.522  53.081  1.00  0.00    +0.077 A 
ATOM     13  C   UNL     1      29.050   0.481  53.656  1.00  0.00    +0.141 A 
ATOM     14 Cl   UNL     1      28.799  -2.162  53.108  1.00  0.00    -0.081 Cl
ATOM     15  F   UNL     1      30.219   0.191  54.247  1.00  0.00    -0.205 F 
ENDBRANCH   6   8
BRANCH   4  16
ATOM     16  C   UNL     1      21.889   0.619  51.433  1.00  0.00    +0.053 C 
ATOM     17  C   UNL     1      20.868   1.129  52.157  1.00  0.00    +0.054 C 
BRANCH  17  18
ATOM     18  N   UNL     1      20.882   2.375  52.775  1.00  0.00    -0.398 N 
ATOM     19  H   UNL     1      20.712   3.139  52.117  1.00  0.00    +0.156 HD
ATOM     20  H   UNL     1      20.141   2.445  53.477  1.00  0.00    +0.156 HD
ENDBRANCH  17  18
BRANCH  17  21
ATOM     21  C   UNL     1      19.594   0.382  52.221  1.00  0.00    +0.103 C 
ATOM     22  C   UNL     1      18.578   0.798  51.297  1.00  0.00    +0.103 C 
ATOM     23  C   UNL     1      19.353  -0.624  53.092  1.00  0.00    +0.149 C 
ATOM     24  N   UNL     1      17.773   1.117  50.527  1.00  0.00    -0.192 NA
ATOM     25  C   UNL     1      18.102  -1.304  53.126  1.00  0.00    +0.112 C 
ATOM     26  C   UNL     1      20.351  -1.065  54.004  1.00  0.00    +0.112 C 
ATOM     27  N   UNL     1      17.086  -1.863  53.149  1.00  0.00    -0.192 NA
ATOM     28  N   UNL     1      21.194  -1.379  54.737  1.00  0.00    -0.192 NA
ENDBRANCH  17  21
ENDBRANCH   4  16
TORSDOF 4
ENDMDL
MODEL 3
REMARK VINA RESULT:    -8.244      5.105      8.805
REMARK INTER + INTRA:         -10.267
REMARK INTER:                  -9.737
REMARK INTRA:                  -0.530
REMARK UNBOUND:                -0.336
REMARK SMILES Cc1cc(C=C(N)C(C#N)=C(C#N)C#N)[nH]c1-c1ccc(F)c(Cl)c1
REMARK SMILES IDX 1 1 2 2 3 3 4 4 16 5 17 6 18 8 19 9 25 10 20 11 23 12 21 13
REMARK SMILES IDX 24 14 22 15 5 16 6 17 7 18 8 21 9 22 11 23 10 24 12 25 14 26
REMARK SMILES IDX 13 27 15 28
REMARK H PARENT 16 7 7 19 7 20
ROOT
ATOM      1  C   UNL     1      24.007  -0.226  53.543  1.00  0.00    +0.047 C 
ATOM      2  C   UNL     1      24.500   0.994  52.848  1.00  0.00    -0.025 A 
ATOM      3  C   UNL     1      23.680   2.001  52.262  1.00  0.00    +0.031 A 
ATOM      4  C   UNL     1      24.502   2.975  51.736  1.00  0.00    +0.041 A 
ATOM      5  N   UNL     1      25.795   2.574  51.961  1.00  0.00    -0.355 N 
ATOM      6  C   UNL     1      25.820   1.378  52.648  1.00  0.00    +0.049 A 
ATOM      7  H   UNL     1      26.623   3.080  51.673  1.00  0.00    +0.167 HD
ENDROOT
BRANCH   6   8
ATOM      8  C   UNL     1      27.077   0.730  53.019  1.00  0.00    -0.000 A 
ATOM      9  C   UNL     1      28.136   1.483  53.546  1.00  0.00    +0.013 A 
ATOM     10  C   UNL     1      27.237  -0.653  52.849  1.00  0.00    +0.034 A 
ATOM     11  C   UNL     1      29.337   0.864  53.900  1.00  0.00    +0.041 A 
ATOM     12  C   UNL     1      28.439  -1.268  53.204  1.00  0.00    +0.077 A 
ATOM     13  C   UNL     1      29.482  -0.508  53.725  1.00  0.00    +0.141 A 
ATOM     14 Cl   UNL     1      28.614  -2.967  52.985  1.00  0.00    -0.081 Cl
ATOM     15  F   UNL     1      30.644  -1.082  54.072  1.00  0.00    -0.205 F 
ENDBRANCH   6   8
BRANCH   4  16
ATOM     16  C   UNL     1      24.293   4.189  51.036  1.00  0.00    +0.053 C 
ATOM     17  C   UNL     1      23.948   5.347  51.643  1.00  0.00    +0.054 C 
BRANCH  17  18
ATOM     18  N   UNL     1      23.866   5.523  53.020  1.00  0.00    -0.398 N 
ATOM     19  H   UNL     1      22.900   5.568  53.352  1.00  0.00    +0.156 HD
ATOM     20  H   UNL     1      24.293   4.737  53.516  1.00  0.00    +0.156 HD
ENDBRANCH  17  18
BRANCH  17  21
ATOM     21  C   UNL     1      23.747   6.555  50.816  1.00  0.00    +0.103 C 
ATOM     22  C   UNL     1      24.917   7.348  50.573  1.00  0.00    +0.103 C 
ATOM     23  C   UNL     1      22.550   6.936  50.315  1.00  0.00    +0.149 C 
ATOM     24  N   UNL     1      25.872   7.967  50.354  1.00  0.00    -0.192 NA
ATOM     25  C   UNL     1      22.404   8.118  49.536  1.00  0.00    +0.112 C 
ATOM     26  C   UNL     1      21.380   6.155  50.528  1.00  0.00    +0.112 C 
ATOM     27  N   UNL     1      22.285   9.077  48.895  1.00  0.00    -0.192 NA
ATOM     28  N   UNL     1      20.453   5.491  50.741  1.00  0.00    -0.192 NA
ENDBRANCH  17  21
ENDBRANCH   4  16
TORSDOF 4
ENDMDL
MODEL 4
REMARK VINA RESULT:    -8.184      6.222      8.642
REMARK INTER + INTRA:         -10.195
REMARK INTER:                  -9.540
REMARK INTRA:                  -0.656
REMARK UNBOUND:                -0.336
REMARK SMILES Cc1cc(C=C(N)C(C#N)=C(C#N)C#N)[nH]c1-c1ccc(F)c(Cl)c1
REMARK SMILES IDX 1 1 2 2 3 3 4 4 16 5 17 6 18 8 19 9 25 10 20 11 23 12 21 13
REMARK SMILES IDX 24 14 22 15 5 16 6 17 7 18 8 21 9 22 11 23 10 24 12 25 14 26
REMARK SMILES IDX 13 27 15 28
REMARK H PARENT 16 7 7 19 7 20
ROOT
ATOM      1  C   UNL     1      23.791   2.496  52.780  1.00  0.00    +0.047 C 
ATOM      2  C   UNL     1      24.757   3.034  51.784  1.00  0.00    -0.025 A 
ATOM      3  C   UNL     1      24.484   4.064  50.839  1.00  0.00    +0.031 A 
ATOM      4  C   UNL     1      25.631   4.296  50.110  1.00  0.00    +0.041 A 
ATOM      5  N   UNL     1      26.582   3.418  50.566  1.00  0.00    -0.355 N 
ATOM      6  C   UNL     1      26.079   2.649  51.594  1.00  0.00    +0.049 A 
ATOM      7  H   UNL     1      27.526   3.342  50.210  1.00  0.00    +0.167 HD
ENDROOT
BRANCH   6   8
ATOM      8  C   UNL     1      26.890   1.632  52.263  1.00  0.00    -0.000 A 
ATOM      9  C   UNL     1      27.954   2.008  53.095  1.00  0.00    +0.013 A 
ATOM     10  C   UNL     1      26.614   0.271  52.075  1.00  0.00    +0.034 A 
ATOM     11  C   UNL     1      28.730   1.038  53.733  1.00  0.00    +0.041 A 
ATOM     12  C   UNL     1      27.391  -0.697  52.715  1.00  0.00    +0.077 A 
ATOM     13  C   UNL     1      28.444  -0.309  53.539  1.00  0.00    +0.141 A 
ATOM     14 Cl   UNL     1      27.035  -2.363  52.469  1.00  0.00    -0.081 Cl
ATOM     15  F   UNL     1      29.202  -1.225  54.161  1.00  0.00    -0.205 F 
ENDBRANCH   6   8
BRANCH   4  16
ATOM     16  C   UNL     1      25.981   5.166  49.048  1.00  0.00    +0.053 C 
ATOM     17  C   UNL     1      26.190   6.492  49.210  1.00  0.00    +0.054 C 
BRANCH  17  18
ATOM     18  N   UNL     1      26.202   7.145  50.438  1.00  0.00    -0.398 N 
ATOM     19  H   UNL     1      25.388   7.751  50.566  1.00  0.00    +0.156 HD
ATOM     20  H   UNL     1      26.171   6.475  51.210  1.00  0.00    +0.156 HD
ENDBRANCH  17  18
BRANCH  17  21
ATOM     21  C   UNL     1      26.545   7.310  48.032  1.00  0.00    +0.103 C 
ATOM     22  C   UNL     1      25.467   8.039  47.429  1.00  0.00    +0.103 C 
ATOM     23  C   UNL     1      27.791   7.382  47.511  1.00  0.00    +0.149 C 
ATOM     24  N   UNL     1      24.597   8.651  46.967  1.00  0.00    -0.192 NA
ATOM     25  C   UNL     1      28.081   8.173  46.363  1.00  0.00    +0.112 C 
ATOM     26  C   UNL     1      28.878   6.683  48.103  1.00  0.00    +0.112 C 
ATOM     27  N   UNL     1      28.319   8.824  45.433  1.00  0.00    -0.192 NA
ATOM     28  N   UNL     1      29.729   6.083  48.615  1.00  0.00    -0.192 NA
ENDBRANCH  17  21
ENDBRANCH   4  16
TORSDOF 4
ENDMDL
MODEL 5
REMARK VINA RESULT:    -8.085      4.716      8.625
REMARK INTER + INTRA:         -10.075
REMARK INTER:                  -9.282
REMARK INTRA:                  -0.794
REMARK UNBOUND:                -0.336
REMARK SMILES Cc1cc(C=C(N)C(C#N)=C(C#N)C#N)[nH]c1-c1ccc(F)c(Cl)c1
REMARK SMILES IDX 1 1 2 2 3 3 4 4 16 5 17 6 18 8 19 9 25 10 20 11 23 12 21 13
REMARK SMILES IDX 24 14 22 15 5 16 6 17 7 18 8 21 9 22 11 23 10 24 12 25 14 26
REMARK SMILES IDX 13 27 15 28
REMARK H PARENT 16 7 7 19 7 20
ROOT
ATOM      1  C   UNL     1      23.607  -1.187  54.836  1.00  0.00    +0.047 C 
ATOM      2  C   UNL     1      23.675  -0.270  53.665  1.00  0.00    -0.025 A 
ATOM      3  C   UNL     1      22.560   0.361  53.043  1.00  0.00    +0.031 A 
ATOM      4  C   UNL     1      23.030   1.145  52.010  1.00  0.00    +0.041 A 
ATOM      5  N   UNL     1      24.392   0.985  51.971  1.00  0.00    -0.355 N 
ATOM      6  C   UNL     1      24.811   0.139  52.977  1.00  0.00    +0.049 A 
ATOM      7  H   UNL     1      25.014   1.426  51.305  1.00  0.00    +0.167 HD
ENDROOT
BRANCH   6   8
ATOM      8  C   UNL     1      26.221  -0.198  53.161  1.00  0.00    -0.000 A 
ATOM      9  C   UNL     1      26.705  -1.458  52.780  1.00  0.00    +0.013 A 
ATOM     10  C   UNL     1      27.104   0.734  53.724  1.00  0.00    +0.034 A 
ATOM     11  C   UNL     1      28.053  -1.781  52.957  1.00  0.00    +0.041 A 
ATOM     12  C   UNL     1      28.450   0.408  53.899  1.00  0.00    +0.077 A 
ATOM     13  C   UNL     1      28.917  -0.847  53.516  1.00  0.00    +0.141 A 
ATOM     14 Cl   UNL     1      29.517   1.568  54.593  1.00  0.00    -0.081 Cl
ATOM     15  F   UNL     1      30.207  -1.178  53.677  1.00  0.00    -0.205 F 
ENDBRANCH   6   8
BRANCH   4  16
ATOM     16  C   UNL     1      22.428   1.985  51.041  1.00  0.00    +0.053 C 
ATOM     17  C   UNL     1      22.235   3.311  51.223  1.00  0.00    +0.054 C 
BRANCH  17  18
ATOM     18  N   UNL     1      22.695   4.033  52.319  1.00  0.00    -0.398 N 
ATOM     19  H   UNL     1      22.674   3.487  53.183  1.00  0.00    +0.156 HD
ATOM     20  H   UNL     1      23.671   4.311  52.191  1.00  0.00    +0.156 HD
ENDBRANCH  17  18
BRANCH  17  21
ATOM     21  C   UNL     1      21.591   4.094  50.147  1.00  0.00    +0.103 C 
ATOM     22  C   UNL     1      22.459   4.551  49.101  1.00  0.00    +0.103 C 
ATOM     23  C   UNL     1      20.273   4.398  50.121  1.00  0.00    +0.149 C 
ATOM     24  N   UNL     1      23.161   4.890  48.243  1.00  0.00    -0.192 NA
ATOM     25  C   UNL     1      19.702   5.170  49.070  1.00  0.00    +0.112 C 
ATOM     26  C   UNL     1      19.391   3.940  51.137  1.00  0.00    +0.112 C 
ATOM     27  N   UNL     1      19.235   5.792  48.210  1.00  0.00    -0.192 NA
ATOM     28  N   UNL     1      18.715   3.553  51.998  1.00  0.00    -0.192 NA
ENDBRANCH  17  21
ENDBRANCH   4  16
TORSDOF 4
ENDMDL
MODEL 6
REMARK VINA RESULT:    -7.971      5.213      7.226
REMARK INTER + INTRA:          -9.939
REMARK INTER:                  -9.297
REMARK INTRA:                  -0.642
REMARK UNBOUND:                -0.336
REMARK SMILES Cc1cc(C=C(N)C(C#N)=C(C#N)C#N)[nH]c1-c1ccc(F)c(Cl)c1
REMARK SMILES IDX 1 1 2 2 3 3 4 4 16 5 17 6 18 8 19 9 25 10 20 11 23 12 21 13
REMARK SMILES IDX 24 14 22 15 5 16 6 17 7 18 8 21 9 22 11 23 10 24 12 25 14 26
REMARK SMILES IDX 13 27 15 28
REMARK H PARENT 16 7 7 19 7 20
ROOT
ATOM      1  C   UNL     1      27.590   4.898  48.599  1.00  0.00    +0.047 C 
ATOM      2  C   UNL     1      26.509   4.271  49.408  1.00  0.00    -0.025 A 
ATOM      3  C   UNL     1      26.566   2.979  50.004  1.00  0.00    +0.031 A 
ATOM      4  C   UNL     1      25.387   2.766  50.686  1.00  0.00    +0.041 A 
ATOM      5  N   UNL     1      24.607   3.879  50.498  1.00  0.00    -0.355 N 
ATOM      6  C   UNL     1      25.274   4.815  49.735  1.00  0.00    +0.049 A 
ATOM      7  H   UNL     1      23.674   4.008  50.867  1.00  0.00    +0.167 HD
ENDROOT
BRANCH   6   8
ATOM      8  C   UNL     1      24.666   6.099  49.389  1.00  0.00    -0.000 A 
ATOM      9  C   UNL     1      24.741   7.183  50.276  1.00  0.00    +0.013 A 
ATOM     10  C   UNL     1      23.998   6.259  48.166  1.00  0.00    +0.034 A 
ATOM     11  C   UNL     1      24.159   8.409  49.945  1.00  0.00    +0.041 A 
ATOM     12  C   UNL     1      23.419   7.486  47.839  1.00  0.00    +0.077 A 
ATOM     13  C   UNL     1      23.501   8.553  48.729  1.00  0.00    +0.141 A 
ATOM     14 Cl   UNL     1      22.603   7.659  46.332  1.00  0.00    -0.081 Cl
ATOM     15  F   UNL     1      22.950   9.739  48.432  1.00  0.00    -0.205 F 
ENDBRANCH   6   8
BRANCH   4  16
ATOM     16  C   UNL     1      24.853   1.698  51.449  1.00  0.00    +0.053 C 
ATOM     17  C   UNL     1      24.809   1.699  52.801  1.00  0.00    +0.054 C 
BRANCH  17  18
ATOM     18  N   UNL     1      25.171   2.778  53.602  1.00  0.00    -0.398 N 
ATOM     19  H   UNL     1      24.362   3.304  53.939  1.00  0.00    +0.156 HD
ATOM     20  H   UNL     1      25.664   2.462  54.440  1.00  0.00    +0.156 HD
ENDBRANCH  17  18
BRANCH  17  21
ATOM     21  C   UNL     1      24.236   0.530  53.499  1.00  0.00    +0.103 C 
ATOM     22  C   UNL     1      25.183  -0.377  54.080  1.00  0.00    +0.103 C 
ATOM     23  C   UNL     1      22.909   0.284  53.594  1.00  0.00    +0.149 C 
ATOM     24  N   UNL     1      25.952  -1.089  54.575  1.00  0.00    -0.192 NA
ATOM     25  C   UNL     1      22.406  -0.867  54.264  1.00  0.00    +0.112 C 
ATOM     26  C   UNL     1      21.953   1.178  53.041  1.00  0.00    +0.112 C 
ATOM     27  N   UNL     1      21.994  -1.799  54.817  1.00  0.00    -0.192 NA
ATOM     28  N   UNL     1      21.212   1.933  52.562  1.00  0.00    -0.192 NA
ENDBRANCH  17  21
ENDBRANCH   4  16
TORSDOF 4
ENDMDL
MODEL 7
REMARK VINA RESULT:    -7.968      4.414      8.873
REMARK INTER + INTRA:          -9.935
REMARK INTER:                  -9.199
REMARK INTRA:                  -0.736
REMARK UNBOUND:                -0.336
REMARK SMILES Cc1cc(C=C(N)C(C#N)=C(C#N)C#N)[nH]c1-c1ccc(F)c(Cl)c1
REMARK SMILES IDX 1 1 2 2 3 3 4 4 16 5 17 6 18 8 19 9 25 10 20 11 23 12 21 13
REMARK SMILES IDX 24 14 22 15 5 16 6 17 7 18 8 21 9 22 11 23 10 24 12 25 14 26
REMARK SMILES IDX 13 27 15 28
REMARK H PARENT 16 7 7 19 7 20
ROOT
ATOM      1  C   UNL     1      23.823  -1.394  55.792  1.00  0.00    +0.047 C 
ATOM      2  C   UNL     1      23.361  -0.869  54.478  1.00  0.00    -0.025 A 
ATOM      3  C   UNL     1      22.034  -0.965  53.970  1.00  0.00    +0.031 A 
ATOM      4  C   UNL     1      21.998  -0.345  52.739  1.00  0.00    +0.041 A 
ATOM      5  N   UNL     1      23.270   0.098  52.474  1.00  0.00    -0.355 N 
ATOM      6  C   UNL     1      24.114  -0.197  53.524  1.00  0.00    +0.049 A 
ATOM      7  H   UNL     1      23.557   0.580  51.632  1.00  0.00    +0.167 HD
ENDROOT
BRANCH   6   8
ATOM      8  C   UNL     1      25.530   0.170  53.499  1.00  0.00    -0.000 A 
ATOM      9  C   UNL     1      25.916   1.515  53.587  1.00  0.00    +0.013 A 
ATOM     10  C   UNL     1      26.515  -0.821  53.383  1.00  0.00    +0.034 A 
ATOM     11  C   UNL     1      27.268   1.866  53.562  1.00  0.00    +0.041 A 
ATOM     12  C   UNL     1      27.865  -0.467  53.359  1.00  0.00    +0.077 A 
ATOM     13  C   UNL     1      28.234   0.873  53.447  1.00  0.00    +0.141 A 
ATOM     14 Cl   UNL     1      29.059  -1.700  53.215  1.00  0.00    -0.081 Cl
ATOM     15  F   UNL     1      29.527   1.231  53.425  1.00  0.00    -0.205 F 
ENDBRANCH   6   8
BRANCH   4  16
ATOM     16  C   UNL     1      20.998  -0.126  51.759  1.00  0.00    +0.053 C 
ATOM     17  C   UNL     1      20.122   0.903  51.809  1.00  0.00    +0.054 C 
BRANCH  17  18
ATOM     18  N   UNL     1      20.159   1.928  52.749  1.00  0.00    -0.398 N 
ATOM     19  H   UNL     1      19.226   2.263  52.999  1.00  0.00    +0.156 HD
ATOM     20  H   UNL     1      20.581   1.607  53.624  1.00  0.00    +0.156 HD
ENDBRANCH  17  18
BRANCH  17  21
ATOM     21  C   UNL     1      19.113   1.036  50.737  1.00  0.00    +0.103 C 
ATOM     22  C   UNL     1      19.513   1.801  49.593  1.00  0.00    +0.103 C 
ATOM     23  C   UNL     1      17.873   0.499  50.798  1.00  0.00    +0.149 C 
ATOM     24  N   UNL     1      19.855   2.395  48.657  1.00  0.00    -0.192 NA
ATOM     25  C   UNL     1      16.929   0.668  49.745  1.00  0.00    +0.112 C 
ATOM     26  C   UNL     1      17.461  -0.279  51.915  1.00  0.00    +0.112 C 
ATOM     27  N   UNL     1      16.163   0.798  48.885  1.00  0.00    -0.192 NA
ATOM     28  N   UNL     1      17.168  -0.895  52.854  1.00  0.00    -0.192 NA
ENDBRANCH  17  21
ENDBRANCH   4  16
TORSDOF 4
ENDMDL
MODEL 8
REMARK VINA RESULT:    -7.930      6.587      8.434
REMARK INTER + INTRA:          -9.889
REMARK INTER:                  -9.168
REMARK INTRA:                  -0.721
REMARK UNBOUND:                -0.336
REMARK SMILES Cc1cc(C=C(N)C(C#N)=C(C#N)C#N)[nH]c1-c1ccc(F)c(Cl)c1
REMARK SMILES IDX 1 1 2 2 3 3 4 4 16 5 17 6 18 8 19 9 25 10 20 11 23 12 21 13
REMARK SMILES IDX 24 14 22 15 5 16 6 17 7 18 8 21 9 22 11 23 10 24 12 25 14 26
REMARK SMILES IDX 13 27 15 28
REMARK H PARENT 16 7 7 19 7 20
ROOT
ATOM      1  C   UNL     1      24.036   6.554  47.938  1.00  0.00    +0.047 C 
ATOM      2  C   UNL     1      24.661   5.547  48.837  1.00  0.00    -0.025 A 
ATOM      3  C   UNL     1      23.982   4.461  49.461  1.00  0.00    +0.031 A 
ATOM      4  C   UNL     1      24.901   3.743  50.196  1.00  0.00    +0.041 A 
ATOM      5  N   UNL     1      26.111   4.377  50.057  1.00  0.00    -0.355 N 
ATOM      6  C   UNL     1      25.993   5.469  49.224  1.00  0.00    +0.049 A 
ATOM      7  H   UNL     1      26.976   4.088  50.496  1.00  0.00    +0.167 HD
ENDROOT
BRANCH   6   8
ATOM      8  C   UNL     1      27.138   6.320  48.905  1.00  0.00    -0.000 A 
ATOM      9  C   UNL     1      28.261   5.786  48.256  1.00  0.00    +0.013 A 
ATOM     10  C   UNL     1      27.127   7.680  49.248  1.00  0.00    +0.034 A 
ATOM     11  C   UNL     1      29.356   6.599  47.952  1.00  0.00    +0.041 A 
ATOM     12  C   UNL     1      28.222   8.489  48.942  1.00  0.00    +0.077 A 
ATOM     13  C   UNL     1      29.330   7.945  48.297  1.00  0.00    +0.141 A 
ATOM     14 Cl   UNL     1      28.187  10.156  49.373  1.00  0.00    -0.081 Cl
ATOM     15  F   UNL     1      30.392   8.708  47.996  1.00  0.00    -0.205 F 
ENDBRANCH   6   8
BRANCH   4  16
ATOM     16  C   UNL     1      24.841   2.595  51.025  1.00  0.00    +0.053 C 
ATOM     17  C   UNL     1      24.608   2.650  52.355  1.00  0.00    +0.054 C 
BRANCH  17  18
ATOM     18  N   UNL     1      24.288   3.810  53.054  1.00  0.00    -0.398 N 
ATOM     19  H   UNL     1      23.766   3.618  53.912  1.00  0.00    +0.156 HD
ATOM     20  H   UNL     1      25.133   4.305  53.349  1.00  0.00    +0.156 HD
ENDBRANCH  17  18
BRANCH  17  21
ATOM     21  C   UNL     1      24.572   1.391  53.128  1.00  0.00    +0.103 C 
ATOM     22  C   UNL     1      23.344   0.653  53.064  1.00  0.00    +0.103 C 
ATOM     23  C   UNL     1      25.603   0.935  53.875  1.00  0.00    +0.149 C 
ATOM     24  N   UNL     1      22.360   0.045  52.983  1.00  0.00    -0.192 NA
ATOM     25  C   UNL     1      25.515  -0.278  54.616  1.00  0.00    +0.112 C 
ATOM     26  C   UNL     1      26.836   1.641  53.938  1.00  0.00    +0.112 C 
ATOM     27  N   UNL     1      25.447  -1.270  55.213  1.00  0.00    -0.192 NA
ATOM     28  N   UNL     1      27.817   2.260  53.967  1.00  0.00    -0.192 NA
ENDBRANCH  17  21
ENDBRANCH   4  16
TORSDOF 4
ENDMDL
MODEL 9
REMARK VINA RESULT:    -7.753      5.155      8.299
REMARK INTER + INTRA:          -9.676
REMARK INTER:                  -8.991
REMARK INTRA:                  -0.685
REMARK UNBOUND:                -0.336
REMARK SMILES Cc1cc(C=C(N)C(C#N)=C(C#N)C#N)[nH]c1-c1ccc(F)c(Cl)c1
REMARK SMILES IDX 1 1 2 2 3 3 4 4 16 5 17 6 18 8 19 9 25 10 20 11 23 12 21 13
REMARK SMILES IDX 24 14 22 15 5 16 6 17 7 18 8 21 9 22 11 23 10 24 12 25 14 26
REMARK SMILES IDX 13 27 15 28
REMARK H PARENT 16 7 7 19 7 20
ROOT
ATOM      1  C   UNL     1      23.182  -0.421  53.731  1.00  0.00    +0.047 C 
ATOM      2  C   UNL     1      23.643   0.619  52.771  1.00  0.00    -0.025 A 
ATOM      3  C   UNL     1      22.803   1.544  52.088  1.00  0.00    +0.031 A 
ATOM      4  C   UNL     1      23.599   2.356  51.307  1.00  0.00    +0.041 A 
ATOM      5  N   UNL     1      24.893   1.931  51.476  1.00  0.00    -0.355 N 
ATOM      6  C   UNL     1      24.947   0.884  52.373  1.00  0.00    +0.049 A 
ATOM      7  H   UNL     1      25.703   2.327  51.016  1.00  0.00    +0.167 HD
ENDROOT
BRANCH   6   8
ATOM      8  C   UNL     1      26.212   0.246  52.735  1.00  0.00    -0.000 A 
ATOM      9  C   UNL     1      26.437  -1.106  52.435  1.00  0.00    +0.013 A 
ATOM     10  C   UNL     1      27.213   0.979  53.388  1.00  0.00    +0.034 A 
ATOM     11  C   UNL     1      27.644  -1.715  52.782  1.00  0.00    +0.041 A 
ATOM     12  C   UNL     1      28.419   0.367  53.733  1.00  0.00    +0.077 A 
ATOM     13  C   UNL     1      28.628  -0.976  53.430  1.00  0.00    +0.141 A 
ATOM     14 Cl   UNL     1      29.633   1.285  54.536  1.00  0.00    -0.081 Cl
ATOM     15  F   UNL     1      29.780  -1.581  53.753  1.00  0.00    -0.205 F 
ENDBRANCH   6   8
BRANCH   4  16
ATOM     16  C   UNL     1      23.360   3.428  50.413  1.00  0.00    +0.053 C 
ATOM     17  C   UNL     1      23.522   4.728  50.750  1.00  0.00    +0.054 C 
BRANCH  17  18
ATOM     18  N   UNL     1      24.046   5.170  51.961  1.00  0.00    -0.398 N 
ATOM     19  H   UNL     1      25.034   4.933  52.069  1.00  0.00    +0.156 HD
ATOM     20  H   UNL     1      23.996   6.189  52.031  1.00  0.00    +0.156 HD
ENDBRANCH  17  18
BRANCH  17  21
ATOM     21  C   UNL     1      23.239   5.769  49.741  1.00  0.00    +0.103 C 
ATOM     22  C   UNL     1      21.891   6.260  49.710  1.00  0.00    +0.103 C 
ATOM     23  C   UNL     1      24.158   6.247  48.871  1.00  0.00    +0.149 C 
ATOM     24  N   UNL     1      20.809   6.674  49.712  1.00  0.00    -0.192 NA
ATOM     25  C   UNL     1      23.832   7.241  47.905  1.00  0.00    +0.112 C 
ATOM     26  C   UNL     1      25.504   5.789  48.896  1.00  0.00    +0.112 C 
ATOM     27  N   UNL     1      23.569   8.057  47.124  1.00  0.00    -0.192 NA
ATOM     28  N   UNL     1      26.586   5.373  48.948  1.00  0.00    -0.192 NA
ENDBRANCH  17  21
ENDBRANCH   4  16
TORSDOF 4
ENDMDL
