REMARK SMILES N#CC(C#N)=C(N)C(C#N)=C(N)C(C#N)=C(C#N)C#N
REMARK SMILES IDX 1 1 2 2 3 3 4 4 5 5 6 6 7 7 8 10 9 11 11 12 10 13 12 14
REMARK SMILES IDX 13 17 14 18 16 19 15 20 17 21 19 22 18 23 20 24
REMARK H PARENT 7 8 7 9 12 15 12 16
ROOT
ATOM      1  N   UNL     1      -5.118   1.090   0.092  1.00  0.00    -0.192 NA
ATOM      2  C   UNL     1      -4.054   0.830  -0.289  1.00  0.00    +0.113 C 
ATOM      3  C   UNL     1      -2.730   0.531  -0.721  1.00  0.00    +0.153 C 
ATOM      4  C   UNL     1      -2.582   0.018  -2.041  1.00  0.00    +0.113 C 
ATOM      5  N   UNL     1      -2.422  -0.420  -3.103  1.00  0.00    -0.192 NA
ATOM      6  C   UNL     1      -1.673   0.692   0.121  1.00  0.00    +0.081 C 
ENDROOT
BRANCH   6   7
ATOM      7  N   UNL     1      -1.786   1.108   1.447  1.00  0.00    -0.396 N 
ATOM      8  H   UNL     1      -0.941   1.515   1.856  1.00  0.00    +0.156 HD
ATOM      9  H   UNL     1      -2.619   1.647   1.692  1.00  0.00    +0.156 HD
ENDBRANCH   6   7
BRANCH   6  10
ATOM     10  C   UNL     1      -0.290   0.375  -0.312  1.00  0.00    +0.101 C 
ATOM     11  C   UNL     1       0.285   1.247  -1.296  1.00  0.00    +0.104 C 
ATOM     12  C   UNL     1       0.433  -0.645   0.230  1.00  0.00    +0.072 C 
ATOM     13  N   UNL     1       0.794   1.946  -2.067  1.00  0.00    -0.192 NA
BRANCH  12  14
ATOM     14  N   UNL     1      -0.022  -1.469   1.252  1.00  0.00    -0.396 N 
ATOM     15  H   UNL     1      -1.000  -1.325   1.516  1.00  0.00    +0.156 HD
ATOM     16  H   UNL     1       0.191  -2.461   1.143  1.00  0.00    +0.156 HD
ENDBRANCH  12  14
BRANCH  12  17
ATOM     17  C   UNL     1       1.836  -0.892  -0.165  1.00  0.00    +0.105 C 
ATOM     18  C   UNL     1       2.039  -1.908  -1.152  1.00  0.00    +0.104 C 
ATOM     19  C   UNL     1       2.876  -0.233   0.396  1.00  0.00    +0.149 C 
ATOM     20  N   UNL     1       2.186  -2.748  -1.936  1.00  0.00    -0.192 NA
ATOM     21  C   UNL     1       2.650   0.763   1.390  1.00  0.00    +0.112 C 
ATOM     22  C   UNL     1       4.224  -0.505   0.031  1.00  0.00    +0.112 C 
ATOM     23  N   UNL     1       2.401   1.582   2.173  1.00  0.00    -0.192 NA
ATOM     24  N   UNL     1       5.322  -0.736  -0.261  1.00  0.00    -0.192 NA
ENDBRANCH  12  17
ENDBRANCH   6  10
TORSDOF 4
