MODEL 1
REMARK VINA RESULT:    -8.241      0.000      0.000
REMARK INTER + INTRA:         -10.464
REMARK INTER:                 -10.168
REMARK INTRA:                  -0.296
REMARK UNBOUND:                -0.296
REMARK SMILES O=[N+]([O-])c1cc(-c2cc(O)ccc2[N+](=O)[O-])ccc1O
REMARK SMILES IDX 4 1 5 2 6 3 17 4 18 5 19 6 2 7 1 8 3 9 20 10 7 12 8 13 13 14
REMARK SMILES IDX 9 15 12 16 11 17 14 18 15 19 16 20 10 21
REMARK H PARENT 20 11 10 22
ROOT
ATOM      1  C   UNL     1      23.071  -0.127  53.720  1.00  0.00    +0.311 A 
ATOM      2  C   UNL     1      24.404  -0.530  53.868  1.00  0.00    +0.098 A 
ATOM      3  C   UNL     1      25.378  -0.050  52.980  1.00  0.00    -0.004 A 
ATOM      4  C   UNL     1      24.975   0.826  51.954  1.00  0.00    +0.013 A 
ATOM      5  C   UNL     1      23.639   1.231  51.825  1.00  0.00    +0.054 A 
ATOM      6  C   UNL     1      22.680   0.755  52.715  1.00  0.00    +0.194 A 
ENDROOT
BRANCH   1   7
ATOM      7  N   UNL     1      22.093  -0.661  54.644  1.00  0.00    +0.066 N 
ATOM      8  O   UNL     1      22.258  -1.822  55.044  1.00  0.00    -0.258 OA
ATOM      9  O   UNL     1      21.196   0.108  55.018  1.00  0.00    -0.258 OA
ENDBRANCH   1   7
BRANCH   6  10
ATOM     10  O   UNL     1      21.385   1.169  52.606  1.00  0.00    -0.502 OA
ATOM     11  H   UNL     1      20.790   0.508  52.998  1.00  0.00    +0.293 HD
ENDBRANCH   6  10
BRANCH   3  12
ATOM     12  C   UNL     1      26.784  -0.464  53.113  1.00  0.00    +0.063 A 
ATOM     13  C   UNL     1      27.102  -1.832  53.141  1.00  0.00    +0.062 A 
ATOM     14  C   UNL     1      27.861   0.438  53.201  1.00  0.00    +0.277 A 
ATOM     15  C   UNL     1      28.428  -2.259  53.242  1.00  0.00    +0.116 A 
ATOM     16  C   UNL     1      29.197   0.014  53.297  1.00  0.00    +0.090 A 
ATOM     17  C   UNL     1      29.477  -1.350  53.319  1.00  0.00    +0.053 A 
BRANCH  14  18
ATOM     18  N   UNL     1      27.621   1.869  53.207  1.00  0.00    +0.063 N 
ATOM     19  O   UNL     1      27.807   2.469  52.140  1.00  0.00    -0.258 OA
ATOM     20  O   UNL     1      27.269   2.380  54.277  1.00  0.00    -0.258 OA
ENDBRANCH  14  18
BRANCH  15  21
ATOM     21  O   UNL     1      28.653  -3.604  53.260  1.00  0.00    -0.508 OA
ATOM     22  H   UNL     1      27.854  -4.061  53.571  1.00  0.00    +0.293 HD
ENDBRANCH  15  21
ENDBRANCH   3  12
TORSDOF 5
ENDMDL
MODEL 2
REMARK VINA RESULT:    -7.920      2.088      5.678
REMARK INTER + INTRA:         -10.069
REMARK INTER:                  -9.228
REMARK INTRA:                  -0.841
REMARK UNBOUND:                -0.296
REMARK SMILES O=[N+]([O-])c1cc(-c2cc(O)ccc2[N+](=O)[O-])ccc1O
REMARK SMILES IDX 4 1 5 2 6 3 17 4 18 5 19 6 2 7 1 8 3 9 20 10 7 12 8 13 13 14
REMARK SMILES IDX 9 15 12 16 11 17 14 18 15 19 16 20 10 21
REMARK H PARENT 20 11 10 22
ROOT
ATOM      1  C   UNL     1      27.426  -0.002  54.396  1.00  0.00    +0.311 A 
ATOM      2  C   UNL     1      26.042   0.202  54.469  1.00  0.00    +0.098 A 
ATOM      3  C   UNL     1      25.207  -0.329  53.475  1.00  0.00    -0.004 A 
ATOM      4  C   UNL     1      25.799  -1.054  52.422  1.00  0.00    +0.013 A 
ATOM      5  C   UNL     1      27.184  -1.262  52.369  1.00  0.00    +0.054 A 
ATOM      6  C   UNL     1      28.004  -0.736  53.363  1.00  0.00    +0.194 A 
ENDROOT
BRANCH   1   7
ATOM      7  N   UNL     1      28.255   0.581  55.431  1.00  0.00    +0.066 N 
ATOM      8  O   UNL     1      29.120   1.396  55.079  1.00  0.00    -0.258 OA
ATOM      9  O   UNL     1      27.991   0.271  56.601  1.00  0.00    -0.258 OA
ENDBRANCH   1   7
BRANCH   6  10
ATOM     10  O   UNL     1      29.349  -0.960  53.326  1.00  0.00    -0.502 OA
ATOM     11  H   UNL     1      29.745  -0.754  54.189  1.00  0.00    +0.293 HD
ENDBRANCH   6  10
BRANCH   3  12
ATOM     12  C   UNL     1      23.752  -0.123  53.528  1.00  0.00    +0.063 A 
ATOM     13  C   UNL     1      22.945  -1.055  54.203  1.00  0.00    +0.062 A 
ATOM     14  C   UNL     1      23.095   0.979  52.950  1.00  0.00    +0.277 A 
ATOM     15  C   UNL     1      21.564  -0.877  54.294  1.00  0.00    +0.116 A 
ATOM     16  C   UNL     1      21.706   1.167  53.042  1.00  0.00    +0.090 A 
ATOM     17  C   UNL     1      20.937   0.225  53.722  1.00  0.00    +0.053 A 
BRANCH  14  18
ATOM     18  N   UNL     1      23.847   1.976  52.210  1.00  0.00    +0.063 N 
ATOM     19  O   UNL     1      24.308   2.922  52.862  1.00  0.00    -0.258 OA
ATOM     20  O   UNL     1      23.954   1.815  50.988  1.00  0.00    -0.258 OA
ENDBRANCH  14  18
BRANCH  15  21
ATOM     21  O   UNL     1      20.853  -1.825  54.969  1.00  0.00    -0.508 OA
ATOM     22  H   UNL     1      20.846  -1.609  55.917  1.00  0.00    +0.293 HD
ENDBRANCH  15  21
ENDBRANCH   3  12
TORSDOF 5
ENDMDL
MODEL 3
REMARK VINA RESULT:    -7.776      2.042      2.921
REMARK INTER + INTRA:          -9.891
REMARK INTER:                  -9.559
REMARK INTRA:                  -0.332
REMARK UNBOUND:                -0.296
REMARK SMILES O=[N+]([O-])c1cc(-c2cc(O)ccc2[N+](=O)[O-])ccc1O
REMARK SMILES IDX 4 1 5 2 6 3 17 4 18 5 19 6 2 7 1 8 3 9 20 10 7 12 8 13 13 14
REMARK SMILES IDX 9 15 12 16 11 17 14 18 15 19 16 20 10 21
REMARK H PARENT 20 11 10 22
ROOT
ATOM      1  C   UNL     1      24.214   1.940  51.398  1.00  0.00    +0.311 A 
ATOM      2  C   UNL     1      25.470   1.365  51.635  1.00  0.00    +0.098 A 
ATOM      3  C   UNL     1      25.623   0.431  52.670  1.00  0.00    -0.004 A 
ATOM      4  C   UNL     1      24.496   0.105  53.449  1.00  0.00    +0.013 A 
ATOM      5  C   UNL     1      23.243   0.678  53.194  1.00  0.00    +0.054 A 
ATOM      6  C   UNL     1      23.099   1.600  52.160  1.00  0.00    +0.194 A 
ENDROOT
BRANCH   1   7
ATOM      7  N   UNL     1      24.103   2.915  50.334  1.00  0.00    +0.066 N 
ATOM      8  O   UNL     1      24.877   3.883  50.361  1.00  0.00    -0.258 OA
ATOM      9  O   UNL     1      23.284   2.674  49.436  1.00  0.00    -0.258 OA
ENDBRANCH   1   7
BRANCH   6  10
ATOM     10  O   UNL     1      21.874   2.138  51.894  1.00  0.00    -0.502 OA
ATOM     11  H   UNL     1      21.618   1.945  50.976  1.00  0.00    +0.293 HD
ENDBRANCH   6  10
BRANCH   3  12
ATOM     12  C   UNL     1      26.933  -0.182  52.940  1.00  0.00    +0.063 A 
ATOM     13  C   UNL     1      27.088  -1.572  52.798  1.00  0.00    +0.062 A 
ATOM     14  C   UNL     1      28.075   0.546  53.323  1.00  0.00    +0.277 A 
ATOM     15  C   UNL     1      28.324  -2.183  53.022  1.00  0.00    +0.116 A 
ATOM     16  C   UNL     1      29.322  -0.062  53.544  1.00  0.00    +0.090 A 
ATOM     17  C   UNL     1      29.441  -1.442  53.392  1.00  0.00    +0.053 A 
BRANCH  14  18
ATOM     18  N   UNL     1      27.997   1.982  53.518  1.00  0.00    +0.063 N 
ATOM     19  O   UNL     1      28.768   2.678  52.844  1.00  0.00    -0.258 OA
ATOM     20  O   UNL     1      27.185   2.397  54.354  1.00  0.00    -0.258 OA
ENDBRANCH  14  18
BRANCH  15  21
ATOM     21  O   UNL     1      28.392  -3.535  52.861  1.00  0.00    -0.508 OA
ATOM     22  H   UNL     1      28.925  -3.918  53.577  1.00  0.00    +0.293 HD
ENDBRANCH  15  21
ENDBRANCH   3  12
TORSDOF 5
ENDMDL
MODEL 4
REMARK VINA RESULT:    -7.212      2.482      6.085
REMARK INTER + INTRA:          -9.195
REMARK INTER:                  -8.361
REMARK INTRA:                  -0.834
REMARK UNBOUND:                -0.296
REMARK SMILES O=[N+]([O-])c1cc(-c2cc(O)ccc2[N+](=O)[O-])ccc1O
REMARK SMILES IDX 4 1 5 2 6 3 17 4 18 5 19 6 2 7 1 8 3 9 20 10 7 12 8 13 13 14
REMARK SMILES IDX 9 15 12 16 11 17 14 18 15 19 16 20 10 21
REMARK H PARENT 20 11 10 22
ROOT
ATOM      1  C   UNL     1      26.497   0.215  54.522  1.00  0.00    +0.311 A 
ATOM      2  C   UNL     1      25.418   1.079  54.295  1.00  0.00    +0.098 A 
ATOM      3  C   UNL     1      25.008   1.350  52.981  1.00  0.00    -0.004 A 
ATOM      4  C   UNL     1      25.709   0.741  51.923  1.00  0.00    +0.013 A 
ATOM      5  C   UNL     1      26.779  -0.131  52.164  1.00  0.00    +0.054 A 
ATOM      6  C   UNL     1      27.175  -0.399  53.472  1.00  0.00    +0.194 A 
ENDROOT
BRANCH   1   7
ATOM      7  N   UNL     1      26.903  -0.021  55.892  1.00  0.00    +0.066 N 
ATOM      8  O   UNL     1      26.096  -0.597  56.636  1.00  0.00    -0.258 OA
ATOM      9  O   UNL     1      28.056   0.311  56.200  1.00  0.00    -0.258 OA
ENDBRANCH   1   7
BRANCH   6  10
ATOM     10  O   UNL     1      28.200  -1.268  53.708  1.00  0.00    -0.502 OA
ATOM     11  H   UNL     1      28.647  -1.037  54.540  1.00  0.00    +0.293 HD
ENDBRANCH   6  10
BRANCH   3  12
ATOM     12  C   UNL     1      23.880   2.257  52.720  1.00  0.00    +0.063 A 
ATOM     13  C   UNL     1      24.127   3.624  52.507  1.00  0.00    +0.062 A 
ATOM     14  C   UNL     1      22.538   1.839  52.650  1.00  0.00    +0.277 A 
ATOM     15  C   UNL     1      23.082   4.509  52.232  1.00  0.00    +0.116 A 
ATOM     16  C   UNL     1      21.483   2.724  52.368  1.00  0.00    +0.090 A 
ATOM     17  C   UNL     1      21.764   4.071  52.159  1.00  0.00    +0.053 A 
BRANCH  14  18
ATOM     18  N   UNL     1      22.189   0.450  52.885  1.00  0.00    +0.063 N 
ATOM     19  O   UNL     1      22.095  -0.276  51.886  1.00  0.00    -0.258 OA
ATOM     20  O   UNL     1      21.994   0.105  54.056  1.00  0.00    -0.258 OA
ENDBRANCH  14  18
BRANCH  15  21
ATOM     21  O   UNL     1      23.406   5.818  52.033  1.00  0.00    -0.508 OA
ATOM     22  H   UNL     1      23.274   6.312  52.860  1.00  0.00    +0.293 HD
ENDBRANCH  15  21
ENDBRANCH   3  12
TORSDOF 5
ENDMDL
MODEL 5
REMARK VINA RESULT:    -7.009      2.401      6.523
REMARK INTER + INTRA:          -8.944
REMARK INTER:                  -8.307
REMARK INTRA:                  -0.637
REMARK UNBOUND:                -0.296
REMARK SMILES O=[N+]([O-])c1cc(-c2cc(O)ccc2[N+](=O)[O-])ccc1O
REMARK SMILES IDX 4 1 5 2 6 3 17 4 18 5 19 6 2 7 1 8 3 9 20 10 7 12 8 13 13 14
REMARK SMILES IDX 9 15 12 16 11 17 14 18 15 19 16 20 10 21
REMARK H PARENT 20 11 10 22
ROOT
ATOM      1  C   UNL     1      25.240   0.478  53.312  1.00  0.00    +0.311 A 
ATOM      2  C   UNL     1      23.971   0.151  52.817  1.00  0.00    +0.098 A 
ATOM      3  C   UNL     1      23.033   1.168  52.582  1.00  0.00    -0.004 A 
ATOM      4  C   UNL     1      23.404   2.497  52.860  1.00  0.00    +0.013 A 
ATOM      5  C   UNL     1      24.682   2.812  53.342  1.00  0.00    +0.054 A 
ATOM      6  C   UNL     1      25.609   1.797  53.567  1.00  0.00    +0.194 A 
ENDROOT
BRANCH   1   7
ATOM      7  N   UNL     1      26.171  -0.603  53.561  1.00  0.00    +0.066 N 
ATOM      8  O   UNL     1      26.553  -0.771  54.728  1.00  0.00    -0.258 OA
ATOM      9  O   UNL     1      26.466  -1.322  52.596  1.00  0.00    -0.258 OA
ENDBRANCH   1   7
BRANCH   6  10
ATOM     10  O   UNL     1      26.861   2.104  54.011  1.00  0.00    -0.502 OA
ATOM     11  H   UNL     1      26.809   2.766  54.722  1.00  0.00    +0.293 HD
ENDBRANCH   6  10
BRANCH   3  12
ATOM     12  C   UNL     1      21.692   0.847  52.068  1.00  0.00    +0.063 A 
ATOM     13  C   UNL     1      21.337   1.245  50.767  1.00  0.00    +0.062 A 
ATOM     14  C   UNL     1      20.722   0.138  52.799  1.00  0.00    +0.277 A 
ATOM     15  C   UNL     1      20.082   0.936  50.239  1.00  0.00    +0.116 A 
ATOM     16  C   UNL     1      19.459  -0.180  52.272  1.00  0.00    +0.090 A 
ATOM     17  C   UNL     1      19.141   0.226  50.978  1.00  0.00    +0.053 A 
BRANCH  14  18
ATOM     18  N   UNL     1      20.994  -0.287  54.160  1.00  0.00    +0.063 N 
ATOM     19  O   UNL     1      20.826   0.557  55.051  1.00  0.00    -0.258 OA
ATOM     20  O   UNL     1      21.391  -1.447  54.323  1.00  0.00    -0.258 OA
ENDBRANCH  14  18
BRANCH  15  21
ATOM     21  O   UNL     1      19.817   1.354  48.969  1.00  0.00    -0.508 OA
ATOM     22  H   UNL     1      18.950   1.013  48.692  1.00  0.00    +0.293 HD
ENDBRANCH  15  21
ENDBRANCH   3  12
TORSDOF 5
ENDMDL
MODEL 6
REMARK VINA RESULT:    -6.962      3.053      5.406
REMARK INTER + INTRA:          -8.886
REMARK INTER:                  -8.652
REMARK INTRA:                  -0.233
REMARK UNBOUND:                -0.296
REMARK SMILES O=[N+]([O-])c1cc(-c2cc(O)ccc2[N+](=O)[O-])ccc1O
REMARK SMILES IDX 4 1 5 2 6 3 17 4 18 5 19 6 2 7 1 8 3 9 20 10 7 12 8 13 13 14
REMARK SMILES IDX 9 15 12 16 11 17 14 18 15 19 16 20 10 21
REMARK H PARENT 20 11 10 22
ROOT
ATOM      1  C   UNL     1      24.175  -0.592  54.016  1.00  0.00    +0.311 A 
ATOM      2  C   UNL     1      24.128   0.205  52.864  1.00  0.00    +0.098 A 
ATOM      3  C   UNL     1      22.888   0.623  52.358  1.00  0.00    -0.004 A 
ATOM      4  C   UNL     1      21.719   0.216  53.031  1.00  0.00    +0.013 A 
ATOM      5  C   UNL     1      21.782  -0.570  54.189  1.00  0.00    +0.054 A 
ATOM      6  C   UNL     1      23.017  -0.975  54.688  1.00  0.00    +0.194 A 
ENDROOT
BRANCH   1   7
ATOM      7  N   UNL     1      25.473  -1.020  54.494  1.00  0.00    +0.066 N 
ATOM      8  O   UNL     1      26.298  -1.396  53.649  1.00  0.00    -0.258 OA
ATOM      9  O   UNL     1      25.685  -0.914  55.710  1.00  0.00    -0.258 OA
ENDBRANCH   1   7
BRANCH   6  10
ATOM     10  O   UNL     1      23.079  -1.718  55.830  1.00  0.00    -0.502 OA
ATOM     11  H   UNL     1      23.234  -2.653  55.611  1.00  0.00    +0.293 HD
ENDBRANCH   6  10
BRANCH   3  12
ATOM     12  C   UNL     1      22.814   1.456  51.148  1.00  0.00    +0.063 A 
ATOM     13  C   UNL     1      21.946   1.086  50.106  1.00  0.00    +0.062 A 
ATOM     14  C   UNL     1      23.559   2.635  50.961  1.00  0.00    +0.277 A 
ATOM     15  C   UNL     1      21.833   1.867  48.954  1.00  0.00    +0.116 A 
ATOM     16  C   UNL     1      23.446   3.427  49.807  1.00  0.00    +0.090 A 
ATOM     17  C   UNL     1      22.573   3.034  48.796  1.00  0.00    +0.053 A 
BRANCH  14  18
ATOM     18  N   UNL     1      24.500   3.075  51.974  1.00  0.00    +0.063 N 
ATOM     19  O   UNL     1      24.027   3.666  52.954  1.00  0.00    -0.258 OA
ATOM     20  O   UNL     1      25.699   2.846  51.773  1.00  0.00    -0.258 OA
ENDBRANCH  14  18
BRANCH  15  21
ATOM     21  O   UNL     1      20.966   1.442  47.992  1.00  0.00    -0.508 OA
ATOM     22  H   UNL     1      20.355   2.163  47.767  1.00  0.00    +0.293 HD
ENDBRANCH  15  21
ENDBRANCH   3  12
TORSDOF 5
ENDMDL
MODEL 7
REMARK VINA RESULT:    -6.957      1.725      3.427
REMARK INTER + INTRA:          -8.879
REMARK INTER:                  -8.452
REMARK INTRA:                  -0.427
REMARK UNBOUND:                -0.296
REMARK SMILES O=[N+]([O-])c1cc(-c2cc(O)ccc2[N+](=O)[O-])ccc1O
REMARK SMILES IDX 4 1 5 2 6 3 17 4 18 5 19 6 2 7 1 8 3 9 20 10 7 12 8 13 13 14
REMARK SMILES IDX 9 15 12 16 11 17 14 18 15 19 16 20 10 21
REMARK H PARENT 20 11 10 22
ROOT
ATOM      1  C   UNL     1      23.357  -0.038  53.613  1.00  0.00    +0.311 A 
ATOM      2  C   UNL     1      24.712   0.222  53.372  1.00  0.00    +0.098 A 
ATOM      3  C   UNL     1      25.688  -0.345  54.204  1.00  0.00    -0.004 A 
ATOM      4  C   UNL     1      25.265  -1.162  55.271  1.00  0.00    +0.013 A 
ATOM      5  C   UNL     1      23.907  -1.424  55.493  1.00  0.00    +0.054 A 
ATOM      6  C   UNL     1      22.945  -0.862  54.658  1.00  0.00    +0.194 A 
ENDROOT
BRANCH   1   7
ATOM      7  N   UNL     1      22.380   0.583  52.743  1.00  0.00    +0.066 N 
ATOM      8  O   UNL     1      22.595   0.548  51.524  1.00  0.00    -0.258 OA
ATOM      9  O   UNL     1      21.365   1.048  53.282  1.00  0.00    -0.258 OA
ENDBRANCH   1   7
BRANCH   6  10
ATOM     10  O   UNL     1      21.624  -1.139  54.857  1.00  0.00    -0.502 OA
ATOM     11  H   UNL     1      21.098  -0.325  54.775  1.00  0.00    +0.293 HD
ENDBRANCH   6  10
BRANCH   3  12
ATOM     12  C   UNL     1      27.117  -0.081  53.973  1.00  0.00    +0.063 A 
ATOM     13  C   UNL     1      27.675   1.134  54.406  1.00  0.00    +0.062 A 
ATOM     14  C   UNL     1      27.990  -0.990  53.346  1.00  0.00    +0.277 A 
ATOM     15  C   UNL     1      29.032   1.406  54.225  1.00  0.00    +0.116 A 
ATOM     16  C   UNL     1      29.357  -0.724  53.165  1.00  0.00    +0.090 A 
ATOM     17  C   UNL     1      29.878   0.489  53.610  1.00  0.00    +0.053 A 
BRANCH  14  18
ATOM     18  N   UNL     1      27.492  -2.256  52.843  1.00  0.00    +0.063 N 
ATOM     19  O   UNL     1      28.044  -3.280  53.268  1.00  0.00    -0.258 OA
ATOM     20  O   UNL     1      26.572  -2.216  52.016  1.00  0.00    -0.258 OA
ENDBRANCH  14  18
BRANCH  15  21
ATOM     21  O   UNL     1      29.496   2.606  54.677  1.00  0.00    -0.508 OA
ATOM     22  H   UNL     1      30.226   2.455  55.301  1.00  0.00    +0.293 HD
ENDBRANCH  15  21
ENDBRANCH   3  12
TORSDOF 5
ENDMDL
MODEL 8
REMARK VINA RESULT:    -6.831      1.433      2.390
REMARK INTER + INTRA:          -8.724
REMARK INTER:                  -8.116
REMARK INTRA:                  -0.609
REMARK UNBOUND:                -0.296
REMARK SMILES O=[N+]([O-])c1cc(-c2cc(O)ccc2[N+](=O)[O-])ccc1O
REMARK SMILES IDX 4 1 5 2 6 3 17 4 18 5 19 6 2 7 1 8 3 9 20 10 7 12 8 13 13 14
REMARK SMILES IDX 9 15 12 16 11 17 14 18 15 19 16 20 10 21
REMARK H PARENT 20 11 10 22
ROOT
ATOM      1  C   UNL     1      22.139   0.171  52.920  1.00  0.00    +0.311 A 
ATOM      2  C   UNL     1      23.517   0.093  52.677  1.00  0.00    +0.098 A 
ATOM      3  C   UNL     1      24.359  -0.492  53.634  1.00  0.00    -0.004 A 
ATOM      4  C   UNL     1      23.784  -0.980  54.823  1.00  0.00    +0.013 A 
ATOM      5  C   UNL     1      22.402  -0.906  55.047  1.00  0.00    +0.054 A 
ATOM      6  C   UNL     1      21.573  -0.330  54.089  1.00  0.00    +0.194 A 
ENDROOT
BRANCH   1   7
ATOM      7  N   UNL     1      21.307   0.801  51.916  1.00  0.00    +0.066 N 
ATOM      8  O   UNL     1      21.217   0.241  50.814  1.00  0.00    -0.258 OA
ATOM      9  O   UNL     1      20.691   1.821  52.257  1.00  0.00    -0.258 OA
ENDBRANCH   1   7
BRANCH   6  10
ATOM     10  O   UNL     1      20.225  -0.282  54.295  1.00  0.00    -0.502 OA
ATOM     11  H   UNL     1      19.971   0.594  54.631  1.00  0.00    +0.293 HD
ENDBRANCH   6  10
BRANCH   3  12
ATOM     12  C   UNL     1      25.809  -0.580  53.403  1.00  0.00    +0.063 A 
ATOM     13  C   UNL     1      26.407  -1.842  53.237  1.00  0.00    +0.062 A 
ATOM     14  C   UNL     1      26.659   0.538  53.317  1.00  0.00    +0.277 A 
ATOM     15  C   UNL     1      27.777  -1.960  52.991  1.00  0.00    +0.116 A 
ATOM     16  C   UNL     1      28.036   0.425  53.065  1.00  0.00    +0.090 A 
ATOM     17  C   UNL     1      28.596  -0.840  52.902  1.00  0.00    +0.053 A 
BRANCH  14  18
ATOM     18  N   UNL     1      26.130   1.877  53.503  1.00  0.00    +0.063 N 
ATOM     19  O   UNL     1      26.004   2.268  54.671  1.00  0.00    -0.258 OA
ATOM     20  O   UNL     1      25.828   2.514  52.487  1.00  0.00    -0.258 OA
ENDBRANCH  14  18
BRANCH  15  21
ATOM     21  O   UNL     1      28.279  -3.218  52.839  1.00  0.00    -0.508 OA
ATOM     22  H   UNL     1      27.808  -3.668  52.117  1.00  0.00    +0.293 HD
ENDBRANCH  15  21
ENDBRANCH   3  12
TORSDOF 5
ENDMDL
MODEL 9
REMARK VINA RESULT:    -6.737      2.128      3.083
REMARK INTER + INTRA:          -8.609
REMARK INTER:                  -8.483
REMARK INTRA:                  -0.126
REMARK UNBOUND:                -0.296
REMARK SMILES O=[N+]([O-])c1cc(-c2cc(O)ccc2[N+](=O)[O-])ccc1O
REMARK SMILES IDX 4 1 5 2 6 3 17 4 18 5 19 6 2 7 1 8 3 9 20 10 7 12 8 13 13 14
REMARK SMILES IDX 9 15 12 16 11 17 14 18 15 19 16 20 10 21
REMARK H PARENT 20 11 10 22
ROOT
ATOM      1  C   UNL     1      21.114   0.164  52.620  1.00  0.00    +0.311 A 
ATOM      2  C   UNL     1      22.479   0.372  52.386  1.00  0.00    +0.098 A 
ATOM      3  C   UNL     1      23.424  -0.138  53.289  1.00  0.00    -0.004 A 
ATOM      4  C   UNL     1      22.961  -0.844  54.416  1.00  0.00    +0.013 A 
ATOM      5  C   UNL     1      21.592  -1.055  54.631  1.00  0.00    +0.054 A 
ATOM      6  C   UNL     1      20.661  -0.551  53.726  1.00  0.00    +0.194 A 
ENDROOT
BRANCH   1   7
ATOM      7  N   UNL     1      20.170   0.724  51.676  1.00  0.00    +0.066 N 
ATOM      8  O   UNL     1      19.231   0.003  51.308  1.00  0.00    -0.258 OA
ATOM      9  O   UNL     1      20.334   1.910  51.356  1.00  0.00    -0.258 OA
ENDBRANCH   1   7
BRANCH   6  10
ATOM     10  O   UNL     1      19.331  -0.779  53.921  1.00  0.00    -0.502 OA
ATOM     11  H   UNL     1      18.947  -1.203  53.134  1.00  0.00    +0.293 HD
ENDBRANCH   6  10
BRANCH   3  12
ATOM     12  C   UNL     1      24.864   0.073  53.067  1.00  0.00    +0.063 A 
ATOM     13  C   UNL     1      25.752  -1.005  53.225  1.00  0.00    +0.062 A 
ATOM     14  C   UNL     1      25.425   1.304  52.680  1.00  0.00    +0.277 A 
ATOM     15  C   UNL     1      27.121  -0.846  52.998  1.00  0.00    +0.116 A 
ATOM     16  C   UNL     1      26.800   1.468  52.445  1.00  0.00    +0.090 A 
ATOM     17  C   UNL     1      27.652   0.379  52.608  1.00  0.00    +0.053 A 
BRANCH  14  18
ATOM     18  N   UNL     1      24.584   2.475  52.520  1.00  0.00    +0.063 N 
ATOM     19  O   UNL     1      24.247   2.766  51.364  1.00  0.00    -0.258 OA
ATOM     20  O   UNL     1      24.284   3.103  53.543  1.00  0.00    -0.258 OA
ENDBRANCH  14  18
BRANCH  15  21
ATOM     21  O   UNL     1      27.915  -1.940  53.170  1.00  0.00    -0.508 OA
ATOM     22  H   UNL     1      28.812  -1.740  52.854  1.00  0.00    +0.293 HD
ENDBRANCH  15  21
ENDBRANCH   3  12
TORSDOF 5
ENDMDL
