MODEL 1
REMARK VINA RESULT:    -7.934      0.000      0.000
REMARK INTER + INTRA:         -11.214
REMARK INTER:                 -10.485
REMARK INTRA:                  -0.729
REMARK UNBOUND:                -0.729
REMARK SMILES Cc1[nH]c(N2CCN(C)CC2)c(C)c1Cc1cc(C(=O)O)cc(O)c1O
REMARK SMILES IDX 16 1 17 2 18 3 22 4 23 5 25 6 15 7 14 8 2 9 3 10 4 11 12 12
REMARK SMILES IDX 1 13 13 15 5 16 6 17 11 18 7 19 10 20 8 21 9 22 26 23 19 25
REMARK SMILES IDX 20 26 21 27 24 29
REMARK H PARENT 3 14 26 24 21 28 24 30
ROOT
ATOM      1  C   UNL     1      26.594   1.113  53.574  1.00  0.00    +0.003 A 
ATOM      2  C   UNL     1      26.453  -0.223  53.133  1.00  0.00    +0.023 A 
ATOM      3  C   UNL     1      27.563  -1.060  52.922  1.00  0.00    +0.064 A 
ATOM      4  C   UNL     1      28.849  -0.575  53.159  1.00  0.00    +0.065 A 
ATOM      5  C   UNL     1      28.996   0.729  53.606  1.00  0.00    +0.158 A 
ATOM      6  C   UNL     1      27.895   1.569  53.816  1.00  0.00    +0.161 A 
ENDROOT
BRANCH   1   7
ATOM      7  C   UNL     1      25.348   1.944  53.785  1.00  0.00    +0.077 C 
BRANCH   7   8
ATOM      8  C   UNL     1      24.598   1.969  52.483  1.00  0.00    -0.018 A 
ATOM      9  C   UNL     1      25.082   2.455  51.275  1.00  0.00    +0.017 A 
ATOM     10  N   UNL     1      24.097   2.295  50.339  1.00  0.00    -0.345 N 
ATOM     11  C   UNL     1      22.990   1.714  50.893  1.00  0.00    +0.109 A 
ATOM     12  C   UNL     1      23.269   1.462  52.225  1.00  0.00    -0.005 A 
ATOM     13  C   UNL     1      26.389   3.061  50.907  1.00  0.00    +0.064 C 
ATOM     14  H   UNL     1      24.138   2.601  49.378  1.00  0.00    +0.168 HD
ATOM     15  C   UNL     1      22.384   0.787  53.212  1.00  0.00    +0.049 C 
BRANCH  11  16
ATOM     16  N   UNL     1      21.907   1.527  50.091  1.00  0.00    -0.355 N 
ATOM     17  C   UNL     1      22.056   1.528  48.621  1.00  0.00    +0.133 C 
ATOM     18  C   UNL     1      20.598   2.002  50.588  1.00  0.00    +0.133 C 
ATOM     19  C   UNL     1      21.132   2.572  47.959  1.00  0.00    +0.105 C 
ATOM     20  C   UNL     1      19.477   1.743  49.555  1.00  0.00    +0.105 C 
ATOM     21  N   UNL     1      19.691   2.350  48.223  1.00  0.00    -0.303 NA
ATOM     22  C   UNL     1      18.943   3.593  48.064  1.00  0.00    +0.105 C 
ENDBRANCH  11  16
ENDBRANCH   7   8
ENDBRANCH   1   7
BRANCH   6  23
ATOM     23  O   UNL     1      28.210   2.824  54.270  1.00  0.00    -0.504 OA
ATOM     24  H   UNL     1      29.164   2.971  54.194  1.00  0.00    +0.293 HD
ENDBRANCH   6  23
BRANCH   3  25
ATOM     25  C   UNL     1      27.318  -2.447  52.460  1.00  0.00    +0.335 C 
ATOM     26  O   UNL     1      26.419  -2.804  51.722  1.00  0.00    -0.246 OA
BRANCH  25  27
ATOM     27  O   UNL     1      28.211  -3.325  52.947  1.00  0.00    -0.478 OA
ATOM     28  H   UNL     1      28.077  -3.286  53.917  1.00  0.00    +0.297 HD
ENDBRANCH  25  27
ENDBRANCH   3  25
BRANCH   5  29
ATOM     29  O   UNL     1      30.258   1.199  53.848  1.00  0.00    -0.504 OA
ATOM     30  H   UNL     1      30.746   0.420  54.183  1.00  0.00    +0.293 HD
ENDBRANCH   5  29
TORSDOF 7
ENDMDL
MODEL 2
REMARK VINA RESULT:    -7.650      3.904      5.531
REMARK INTER + INTRA:         -10.838
REMARK INTER:                  -9.832
REMARK INTRA:                  -1.006
REMARK UNBOUND:                -0.729
REMARK SMILES Cc1[nH]c(N2CCN(C)CC2)c(C)c1Cc1cc(C(=O)O)cc(O)c1O
REMARK SMILES IDX 16 1 17 2 18 3 22 4 23 5 25 6 15 7 14 8 2 9 3 10 4 11 12 12
REMARK SMILES IDX 1 13 13 15 5 16 6 17 11 18 7 19 10 20 8 21 9 22 26 23 19 25
REMARK SMILES IDX 20 26 21 27 24 29
REMARK H PARENT 3 14 26 24 21 28 24 30
ROOT
ATOM      1  C   UNL     1      23.192  -0.069  52.840  1.00  0.00    +0.003 A 
ATOM      2  C   UNL     1      21.800  -0.002  52.602  1.00  0.00    +0.023 A 
ATOM      3  C   UNL     1      20.864  -0.564  53.489  1.00  0.00    +0.064 A 
ATOM      4  C   UNL     1      21.307  -1.204  54.647  1.00  0.00    +0.065 A 
ATOM      5  C   UNL     1      22.670  -1.261  54.895  1.00  0.00    +0.158 A 
ATOM      6  C   UNL     1      23.607  -0.705  54.016  1.00  0.00    +0.161 A 
ENDROOT
BRANCH   1   7
ATOM      7  C   UNL     1      24.131   0.569  51.841  1.00  0.00    +0.077 C 
BRANCH   7   8
ATOM      8  C   UNL     1      24.050   2.057  52.034  1.00  0.00    -0.018 A 
ATOM      9  C   UNL     1      24.764   2.795  52.970  1.00  0.00    +0.017 A 
ATOM     10  N   UNL     1      24.408   4.108  52.821  1.00  0.00    -0.345 N 
ATOM     11  C   UNL     1      23.492   4.253  51.815  1.00  0.00    +0.109 A 
ATOM     12  C   UNL     1      23.262   3.000  51.273  1.00  0.00    -0.005 A 
ATOM     13  C   UNL     1      25.756   2.389  53.999  1.00  0.00    +0.064 C 
ATOM     14  H   UNL     1      24.724   4.876  53.394  1.00  0.00    +0.168 HD
ATOM     15  C   UNL     1      22.385   2.674  50.116  1.00  0.00    +0.049 C 
BRANCH  11  16
ATOM     16  N   UNL     1      23.010   5.503  51.575  1.00  0.00    -0.355 N 
ATOM     17  C   UNL     1      21.558   5.726  51.425  1.00  0.00    +0.133 C 
ATOM     18  C   UNL     1      23.870   6.431  50.812  1.00  0.00    +0.133 C 
ATOM     19  C   UNL     1      21.227   6.411  50.081  1.00  0.00    +0.105 C 
ATOM     20  C   UNL     1      23.174   7.795  50.598  1.00  0.00    +0.105 C 
ATOM     21  N   UNL     1      21.865   7.737  49.910  1.00  0.00    -0.303 NA
ATOM     22  C   UNL     1      21.978   8.073  48.494  1.00  0.00    +0.105 C 
ENDBRANCH  11  16
ENDBRANCH   7   8
ENDBRANCH   1   7
BRANCH   6  23
ATOM     23  O   UNL     1      24.913  -0.835  54.413  1.00  0.00    -0.504 OA
ATOM     24  H   UNL     1      25.324  -1.582  53.953  1.00  0.00    +0.293 HD
ENDBRANCH   6  23
BRANCH   3  25
ATOM     25  C   UNL     1      19.425  -0.445  53.159  1.00  0.00    +0.335 C 
ATOM     26  O   UNL     1      18.945   0.293  52.318  1.00  0.00    -0.246 OA
BRANCH  25  27
ATOM     27  O   UNL     1      18.649  -1.255  53.899  1.00  0.00    -0.478 OA
ATOM     28  H   UNL     1      18.489  -0.743  54.720  1.00  0.00    +0.297 HD
ENDBRANCH  25  27
ENDBRANCH   3  25
BRANCH   5  29
ATOM     29  O   UNL     1      23.101  -1.879  56.037  1.00  0.00    -0.504 OA
ATOM     30  H   UNL     1      23.668  -1.212  56.474  1.00  0.00    +0.293 HD
ENDBRANCH   5  29
TORSDOF 7
ENDMDL
MODEL 3
REMARK VINA RESULT:    -7.533      1.247      2.181
REMARK INTER + INTRA:         -10.684
REMARK INTER:                  -9.898
REMARK INTRA:                  -0.785
REMARK UNBOUND:                -0.729
REMARK SMILES Cc1[nH]c(N2CCN(C)CC2)c(C)c1Cc1cc(C(=O)O)cc(O)c1O
REMARK SMILES IDX 16 1 17 2 18 3 22 4 23 5 25 6 15 7 14 8 2 9 3 10 4 11 12 12
REMARK SMILES IDX 1 13 13 15 5 16 6 17 11 18 7 19 10 20 8 21 9 22 26 23 19 25
REMARK SMILES IDX 20 26 21 27 24 29
REMARK H PARENT 3 14 26 24 21 28 24 30
ROOT
ATOM      1  C   UNL     1      26.248   0.982  53.638  1.00  0.00    +0.003 A 
ATOM      2  C   UNL     1      26.239  -0.361  53.193  1.00  0.00    +0.023 A 
ATOM      3  C   UNL     1      27.426  -1.066  52.927  1.00  0.00    +0.064 A 
ATOM      4  C   UNL     1      28.658  -0.440  53.110  1.00  0.00    +0.065 A 
ATOM      5  C   UNL     1      28.678   0.871  53.560  1.00  0.00    +0.158 A 
ATOM      6  C   UNL     1      27.500   1.581  53.825  1.00  0.00    +0.161 A 
ENDROOT
BRANCH   1   7
ATOM      7  C   UNL     1      24.928   1.666  53.911  1.00  0.00    +0.077 C 
BRANCH   7   8
ATOM      8  C   UNL     1      24.178   1.733  52.610  1.00  0.00    -0.018 A 
ATOM      9  C   UNL     1      23.010   1.045  52.309  1.00  0.00    +0.017 A 
ATOM     10  N   UNL     1      22.650   1.379  51.032  1.00  0.00    -0.345 N 
ATOM     11  C   UNL     1      23.539   2.267  50.492  1.00  0.00    +0.109 A 
ATOM     12  C   UNL     1      24.495   2.542  51.454  1.00  0.00    -0.005 A 
ATOM     13  C   UNL     1      22.189   0.096  53.106  1.00  0.00    +0.064 C 
ATOM     14  H   UNL     1      21.869   0.998  50.518  1.00  0.00    +0.168 HD
ATOM     15  C   UNL     1      25.629   3.499  51.341  1.00  0.00    +0.049 C 
BRANCH  11  16
ATOM     16  N   UNL     1      23.335   2.662  49.206  1.00  0.00    -0.355 N 
ATOM     17  C   UNL     1      23.618   4.053  48.799  1.00  0.00    +0.133 C 
ATOM     18  C   UNL     1      22.254   1.996  48.450  1.00  0.00    +0.133 C 
ATOM     19  C   UNL     1      22.381   4.720  48.160  1.00  0.00    +0.105 C 
ATOM     20  C   UNL     1      22.130   2.572  47.020  1.00  0.00    +0.105 C 
ATOM     21  N   UNL     1      21.889   4.029  46.944  1.00  0.00    -0.303 NA
ATOM     22  C   UNL     1      20.481   4.338  46.714  1.00  0.00    +0.105 C 
ENDBRANCH  11  16
ENDBRANCH   7   8
ENDBRANCH   1   7
BRANCH   6  23
ATOM     23  O   UNL     1      27.691   2.862  54.275  1.00  0.00    -0.504 OA
ATOM     24  H   UNL     1      26.946   3.130  54.832  1.00  0.00    +0.293 HD
ENDBRANCH   6  23
BRANCH   3  25
ATOM     25  C   UNL     1      27.319  -2.470  52.466  1.00  0.00    +0.335 C 
ATOM     26  O   UNL     1      26.485  -2.905  51.693  1.00  0.00    -0.246 OA
BRANCH  25  27
ATOM     27  O   UNL     1      28.261  -3.269  52.996  1.00  0.00    -0.478 OA
ATOM     28  H   UNL     1      27.774  -3.802  53.658  1.00  0.00    +0.297 HD
ENDBRANCH  25  27
ENDBRANCH   3  25
BRANCH   5  29
ATOM     29  O   UNL     1      29.888   1.481  53.749  1.00  0.00    -0.504 OA
ATOM     30  H   UNL     1      30.269   1.544  52.850  1.00  0.00    +0.293 HD
ENDBRANCH   5  29
TORSDOF 7
ENDMDL
MODEL 4
REMARK VINA RESULT:    -7.443      2.702      4.090
REMARK INTER + INTRA:         -10.565
REMARK INTER:                  -9.627
REMARK INTRA:                  -0.937
REMARK UNBOUND:                -0.729
REMARK SMILES Cc1[nH]c(N2CCN(C)CC2)c(C)c1Cc1cc(C(=O)O)cc(O)c1O
REMARK SMILES IDX 16 1 17 2 18 3 22 4 23 5 25 6 15 7 14 8 2 9 3 10 4 11 12 12
REMARK SMILES IDX 1 13 13 15 5 16 6 17 11 18 7 19 10 20 8 21 9 22 26 23 19 25
REMARK SMILES IDX 20 26 21 27 24 29
REMARK H PARENT 3 14 26 24 21 28 24 30
ROOT
ATOM      1  C   UNL     1      24.930  -0.475  53.941  1.00  0.00    +0.003 A 
ATOM      2  C   UNL     1      26.034   0.302  53.521  1.00  0.00    +0.023 A 
ATOM      3  C   UNL     1      27.069   0.665  54.401  1.00  0.00    +0.064 A 
ATOM      4  C   UNL     1      27.024   0.247  55.731  1.00  0.00    +0.065 A 
ATOM      5  C   UNL     1      25.954  -0.528  56.148  1.00  0.00    +0.158 A 
ATOM      6  C   UNL     1      24.918  -0.892  55.278  1.00  0.00    +0.161 A 
ENDROOT
BRANCH   1   7
ATOM      7  C   UNL     1      23.864  -0.830  52.929  1.00  0.00    +0.077 C 
BRANCH   7   8
ATOM      8  C   UNL     1      22.936   0.347  52.823  1.00  0.00    -0.018 A 
ATOM      9  C   UNL     1      21.773   0.534  53.559  1.00  0.00    +0.017 A 
ATOM     10  N   UNL     1      21.222   1.724  53.167  1.00  0.00    -0.345 N 
ATOM     11  C   UNL     1      21.989   2.323  52.207  1.00  0.00    +0.109 A 
ATOM     12  C   UNL     1      23.089   1.513  51.982  1.00  0.00    -0.005 A 
ATOM     13  C   UNL     1      21.120  -0.298  54.603  1.00  0.00    +0.064 C 
ATOM     14  H   UNL     1      20.345   2.105  53.490  1.00  0.00    +0.168 HD
ATOM     15  C   UNL     1      24.228   1.786  51.065  1.00  0.00    +0.049 C 
BRANCH  11  16
ATOM     16  N   UNL     1      21.546   3.500  51.687  1.00  0.00    -0.355 N 
ATOM     17  C   UNL     1      20.852   3.526  50.384  1.00  0.00    +0.133 C 
ATOM     18  C   UNL     1      22.309   4.722  52.016  1.00  0.00    +0.133 C 
ATOM     19  C   UNL     1      21.545   4.486  49.393  1.00  0.00    +0.105 C 
ATOM     20  C   UNL     1      21.699   5.967  51.331  1.00  0.00    +0.105 C 
ATOM     21  N   UNL     1      21.597   5.892  49.857  1.00  0.00    -0.303 NA
ATOM     22  C   UNL     1      22.684   6.610  49.198  1.00  0.00    +0.105 C 
ENDBRANCH  11  16
ENDBRANCH   7   8
ENDBRANCH   1   7
BRANCH   6  23
ATOM     23  O   UNL     1      23.941  -1.670  55.843  1.00  0.00    -0.504 OA
ATOM     24  H   UNL     1      23.167  -1.699  55.262  1.00  0.00    +0.293 HD
ENDBRANCH   6  23
BRANCH   3  25
ATOM     25  C   UNL     1      28.187   1.481  53.871  1.00  0.00    +0.335 C 
ATOM     26  O   UNL     1      29.085   1.080  53.153  1.00  0.00    -0.246 OA
BRANCH  25  27
ATOM     27  O   UNL     1      28.132   2.764  54.266  1.00  0.00    -0.478 OA
ATOM     28  H   UNL     1      28.707   3.233  53.626  1.00  0.00    +0.297 HD
ENDBRANCH  25  27
ENDBRANCH   3  25
BRANCH   5  29
ATOM     29  O   UNL     1      25.917  -0.947  57.450  1.00  0.00    -0.504 OA
ATOM     30  H   UNL     1      26.858  -1.054  57.696  1.00  0.00    +0.293 HD
ENDBRANCH   5  29
TORSDOF 7
ENDMDL
MODEL 5
REMARK VINA RESULT:    -7.340      2.486      3.498
REMARK INTER + INTRA:         -10.429
REMARK INTER:                  -9.501
REMARK INTRA:                  -0.928
REMARK UNBOUND:                -0.729
REMARK SMILES Cc1[nH]c(N2CCN(C)CC2)c(C)c1Cc1cc(C(=O)O)cc(O)c1O
REMARK SMILES IDX 16 1 17 2 18 3 22 4 23 5 25 6 15 7 14 8 2 9 3 10 4 11 12 12
REMARK SMILES IDX 1 13 13 15 5 16 6 17 11 18 7 19 10 20 8 21 9 22 26 23 19 25
REMARK SMILES IDX 20 26 21 27 24 29
REMARK H PARENT 3 14 26 24 21 28 24 30
ROOT
ATOM      1  C   UNL     1      25.166   2.115  51.399  1.00  0.00    +0.003 A 
ATOM      2  C   UNL     1      24.700   1.099  52.266  1.00  0.00    +0.023 A 
ATOM      3  C   UNL     1      25.528   0.511  53.238  1.00  0.00    +0.064 A 
ATOM      4  C   UNL     1      26.850   0.938  53.371  1.00  0.00    +0.065 A 
ATOM      5  C   UNL     1      27.310   1.945  52.536  1.00  0.00    +0.158 A 
ATOM      6  C   UNL     1      26.491   2.533  51.564  1.00  0.00    +0.161 A 
ENDROOT
BRANCH   1   7
ATOM      7  C   UNL     1      24.208   2.702  50.386  1.00  0.00    +0.077 C 
BRANCH   7   8
ATOM      8  C   UNL     1      22.851   2.757  51.029  1.00  0.00    -0.018 A 
ATOM      9  C   UNL     1      22.451   3.660  52.006  1.00  0.00    +0.017 A 
ATOM     10  N   UNL     1      21.150   3.378  52.323  1.00  0.00    -0.345 N 
ATOM     11  C   UNL     1      20.685   2.328  51.581  1.00  0.00    +0.109 A 
ATOM     12  C   UNL     1      21.704   1.927  50.734  1.00  0.00    -0.005 A 
ATOM     13  C   UNL     1      23.174   4.771  52.680  1.00  0.00    +0.064 C 
ATOM     14  H   UNL     1      20.603   3.834  53.037  1.00  0.00    +0.168 HD
ATOM     15  C   UNL     1      21.642   0.858  49.701  1.00  0.00    +0.049 C 
BRANCH  11  16
ATOM     16  N   UNL     1      19.413   1.903  51.814  1.00  0.00    -0.355 N 
ATOM     17  C   UNL     1      19.167   0.573  52.406  1.00  0.00    +0.133 C 
ATOM     18  C   UNL     1      18.353   2.392  50.907  1.00  0.00    +0.133 C 
ATOM     19  C   UNL     1      18.237  -0.279  51.516  1.00  0.00    +0.105 C 
ATOM     20  C   UNL     1      16.975   1.801  51.284  1.00  0.00    +0.105 C 
ATOM     21  N   UNL     1      16.901   0.324  51.295  1.00  0.00    -0.303 NA
ATOM     22  C   UNL     1      16.298  -0.201  50.074  1.00  0.00    +0.105 C 
ENDBRANCH  11  16
ENDBRANCH   7   8
ENDBRANCH   1   7
BRANCH   6  23
ATOM     23  O   UNL     1      27.095   3.522  50.829  1.00  0.00    -0.504 OA
ATOM     24  H   UNL     1      26.476   3.864  50.168  1.00  0.00    +0.293 HD
ENDBRANCH   6  23
BRANCH   3  25
ATOM     25  C   UNL     1      24.954  -0.546  54.103  1.00  0.00    +0.335 C 
ATOM     26  O   UNL     1      25.526  -1.107  55.019  1.00  0.00    -0.246 OA
BRANCH  25  27
ATOM     27  O   UNL     1      23.687  -0.857  53.778  1.00  0.00    -0.478 OA
ATOM     28  H   UNL     1      23.663  -0.765  52.803  1.00  0.00    +0.297 HD
ENDBRANCH  25  27
ENDBRANCH   3  25
BRANCH   5  29
ATOM     29  O   UNL     1      28.603   2.370  52.675  1.00  0.00    -0.504 OA
ATOM     30  H   UNL     1      28.561   3.332  52.503  1.00  0.00    +0.293 HD
ENDBRANCH   5  29
TORSDOF 7
ENDMDL
MODEL 6
REMARK VINA RESULT:    -7.314      3.765      7.294
REMARK INTER + INTRA:         -10.394
REMARK INTER:                  -9.394
REMARK INTRA:                  -1.000
REMARK UNBOUND:                -0.729
REMARK SMILES Cc1[nH]c(N2CCN(C)CC2)c(C)c1Cc1cc(C(=O)O)cc(O)c1O
REMARK SMILES IDX 16 1 17 2 18 3 22 4 23 5 25 6 15 7 14 8 2 9 3 10 4 11 12 12
REMARK SMILES IDX 1 13 13 15 5 16 6 17 11 18 7 19 10 20 8 21 9 22 26 23 19 25
REMARK SMILES IDX 20 26 21 27 24 29
REMARK H PARENT 3 14 26 24 21 28 24 30
ROOT
ATOM      1  C   UNL     1      22.643   3.928  51.134  1.00  0.00    +0.003 A 
ATOM      2  C   UNL     1      22.326   3.297  49.908  1.00  0.00    +0.023 A 
ATOM      3  C   UNL     1      22.764   3.807  48.673  1.00  0.00    +0.064 A 
ATOM      4  C   UNL     1      23.542   4.964  48.638  1.00  0.00    +0.065 A 
ATOM      5  C   UNL     1      23.870   5.580  49.836  1.00  0.00    +0.158 A 
ATOM      6  C   UNL     1      23.437   5.079  51.070  1.00  0.00    +0.161 A 
ENDROOT
BRANCH   1   7
ATOM      7  C   UNL     1      22.142   3.310  52.420  1.00  0.00    +0.077 C 
BRANCH   7   8
ATOM      8  C   UNL     1      22.878   2.015  52.614  1.00  0.00    -0.018 A 
ATOM      9  C   UNL     1      22.377   0.747  52.348  1.00  0.00    +0.017 A 
ATOM     10  N   UNL     1      23.357  -0.158  52.654  1.00  0.00    -0.345 N 
ATOM     11  C   UNL     1      24.482   0.475  53.103  1.00  0.00    +0.109 A 
ATOM     12  C   UNL     1      24.241   1.838  53.064  1.00  0.00    -0.005 A 
ATOM     13  C   UNL     1      21.059   0.295  51.830  1.00  0.00    +0.064 C 
ATOM     14  H   UNL     1      23.269  -1.163  52.611  1.00  0.00    +0.168 HD
ATOM     15  C   UNL     1      25.197   2.926  53.405  1.00  0.00    +0.049 C 
BRANCH  11  16
ATOM     16  N   UNL     1      25.533  -0.299  53.487  1.00  0.00    -0.355 N 
ATOM     17  C   UNL     1      26.094  -0.174  54.847  1.00  0.00    +0.133 C 
ATOM     18  C   UNL     1      26.499  -0.705  52.445  1.00  0.00    +0.133 C 
ATOM     19  C   UNL     1      27.607   0.132  54.809  1.00  0.00    +0.105 C 
ATOM     20  C   UNL     1      27.645  -1.555  53.041  1.00  0.00    +0.105 C 
ATOM     21  N   UNL     1      28.412  -0.908  54.128  1.00  0.00    -0.303 NA
ATOM     22  C   UNL     1      29.672  -0.349  53.647  1.00  0.00    +0.105 C 
ENDBRANCH  11  16
ENDBRANCH   7   8
ENDBRANCH   1   7
BRANCH   6  23
ATOM     23  O   UNL     1      23.858   5.797  52.160  1.00  0.00    -0.504 OA
ATOM     24  H   UNL     1      24.523   5.292  52.650  1.00  0.00    +0.293 HD
ENDBRANCH   6  23
BRANCH   3  25
ATOM     25  C   UNL     1      22.383   3.079  47.439  1.00  0.00    +0.335 C 
ATOM     26  O   UNL     1      21.940   3.581  46.423  1.00  0.00    -0.246 OA
BRANCH  25  27
ATOM     27  O   UNL     1      22.574   1.752  47.535  1.00  0.00    -0.478 OA
ATOM     28  H   UNL     1      22.132   1.510  48.375  1.00  0.00    +0.297 HD
ENDBRANCH  25  27
ENDBRANCH   3  25
BRANCH   5  29
ATOM     29  O   UNL     1      24.643   6.709  49.801  1.00  0.00    -0.504 OA
ATOM     30  H   UNL     1      25.553   6.383  49.952  1.00  0.00    +0.293 HD
ENDBRANCH   5  29
TORSDOF 7
ENDMDL
MODEL 7
REMARK VINA RESULT:    -7.308      3.158      4.380
REMARK INTER + INTRA:         -10.387
REMARK INTER:                  -9.624
REMARK INTRA:                  -0.763
REMARK UNBOUND:                -0.729
REMARK SMILES Cc1[nH]c(N2CCN(C)CC2)c(C)c1Cc1cc(C(=O)O)cc(O)c1O
REMARK SMILES IDX 16 1 17 2 18 3 22 4 23 5 25 6 15 7 14 8 2 9 3 10 4 11 12 12
REMARK SMILES IDX 1 13 13 15 5 16 6 17 11 18 7 19 10 20 8 21 9 22 26 23 19 25
REMARK SMILES IDX 20 26 21 27 24 29
REMARK H PARENT 3 14 26 24 21 28 24 30
ROOT
ATOM      1  C   UNL     1      24.038   0.954  52.344  1.00  0.00    +0.003 A 
ATOM      2  C   UNL     1      22.876   0.490  53.004  1.00  0.00    +0.023 A 
ATOM      3  C   UNL     1      22.940  -0.416  54.077  1.00  0.00    +0.064 A 
ATOM      4  C   UNL     1      24.179  -0.876  54.522  1.00  0.00    +0.065 A 
ATOM      5  C   UNL     1      25.324  -0.415  53.890  1.00  0.00    +0.158 A 
ATOM      6  C   UNL     1      25.269   0.487  52.820  1.00  0.00    +0.161 A 
ENDROOT
BRANCH   1   7
ATOM      7  C   UNL     1      23.883   1.936  51.204  1.00  0.00    +0.077 C 
BRANCH   7   8
ATOM      8  C   UNL     1      22.490   2.493  51.277  1.00  0.00    -0.018 A 
ATOM      9  C   UNL     1      22.110   3.646  51.953  1.00  0.00    +0.017 A 
ATOM     10  N   UNL     1      20.763   3.808  51.773  1.00  0.00    -0.345 N 
ATOM     11  C   UNL     1      20.252   2.804  50.997  1.00  0.00    +0.109 A 
ATOM     12  C   UNL     1      21.302   1.976  50.636  1.00  0.00    -0.005 A 
ATOM     13  C   UNL     1      22.891   4.621  52.759  1.00  0.00    +0.064 C 
ATOM     14  H   UNL     1      20.193   4.530  52.187  1.00  0.00    +0.168 HD
ATOM     15  C   UNL     1      21.236   0.786  49.746  1.00  0.00    +0.049 C 
BRANCH  11  16
ATOM     16  N   UNL     1      18.912   2.806  50.762  1.00  0.00    -0.355 N 
ATOM     17  C   UNL     1      18.234   4.040  50.316  1.00  0.00    +0.133 C 
ATOM     18  C   UNL     1      18.077   1.888  51.565  1.00  0.00    +0.133 C 
ATOM     19  C   UNL     1      17.072   4.421  51.258  1.00  0.00    +0.105 C 
ATOM     20  C   UNL     1      16.581   2.027  51.202  1.00  0.00    +0.105 C 
ATOM     21  N   UNL     1      16.016   3.386  51.356  1.00  0.00    -0.303 NA
ATOM     22  C   UNL     1      15.272   3.530  52.604  1.00  0.00    +0.105 C 
ENDBRANCH  11  16
ENDBRANCH   7   8
ENDBRANCH   1   7
BRANCH   6  23
ATOM     23  O   UNL     1      26.490   0.853  52.315  1.00  0.00    -0.504 OA
ATOM     24  H   UNL     1      26.433   0.945  51.353  1.00  0.00    +0.293 HD
ENDBRANCH   6  23
BRANCH   3  25
ATOM     25  C   UNL     1      21.670  -0.846  54.709  1.00  0.00    +0.335 C 
ATOM     26  O   UNL     1      21.361  -1.992  54.982  1.00  0.00    -0.246 OA
BRANCH  25  27
ATOM     27  O   UNL     1      20.841   0.179  54.968  1.00  0.00    -0.478 OA
ATOM     28  H   UNL     1      21.345   0.969  54.681  1.00  0.00    +0.297 HD
ENDBRANCH  25  27
ENDBRANCH   3  25
BRANCH   5  29
ATOM     29  O   UNL     1      26.540  -0.858  54.335  1.00  0.00    -0.504 OA
ATOM     30  H   UNL     1      27.189  -0.306  53.854  1.00  0.00    +0.293 HD
ENDBRANCH   5  29
TORSDOF 7
ENDMDL
MODEL 8
REMARK VINA RESULT:    -7.075      3.525      5.779
REMARK INTER + INTRA:         -10.079
REMARK INTER:                  -8.938
REMARK INTRA:                  -1.140
REMARK UNBOUND:                -0.729
REMARK SMILES Cc1[nH]c(N2CCN(C)CC2)c(C)c1Cc1cc(C(=O)O)cc(O)c1O
REMARK SMILES IDX 16 1 17 2 18 3 22 4 23 5 25 6 15 7 14 8 2 9 3 10 4 11 12 12
REMARK SMILES IDX 1 13 13 15 5 16 6 17 11 18 7 19 10 20 8 21 9 22 26 23 19 25
REMARK SMILES IDX 20 26 21 27 24 29
REMARK H PARENT 3 14 26 24 21 28 24 30
ROOT
ATOM      1  C   UNL     1      22.053   0.333  51.989  1.00  0.00    +0.003 A 
ATOM      2  C   UNL     1      23.422   0.406  52.337  1.00  0.00    +0.023 A 
ATOM      3  C   UNL     1      23.911  -0.115  53.548  1.00  0.00    +0.064 A 
ATOM      4  C   UNL     1      23.035  -0.734  54.439  1.00  0.00    +0.065 A 
ATOM      5  C   UNL     1      21.694  -0.824  54.099  1.00  0.00    +0.158 A 
ATOM      6  C   UNL     1      21.199  -0.305  52.895  1.00  0.00    +0.161 A 
ENDROOT
BRANCH   1   7
ATOM      7  C   UNL     1      21.609   0.910  50.663  1.00  0.00    +0.077 C 
BRANCH   7   8
ATOM      8  C   UNL     1      21.652   2.407  50.788  1.00  0.00    -0.018 A 
ATOM      9  C   UNL     1      20.679   3.201  51.380  1.00  0.00    +0.017 A 
ATOM     10  N   UNL     1      21.094   4.502  51.292  1.00  0.00    -0.345 N 
ATOM     11  C   UNL     1      22.309   4.583  50.668  1.00  0.00    +0.109 A 
ATOM     12  C   UNL     1      22.712   3.294  50.363  1.00  0.00    -0.005 A 
ATOM     13  C   UNL     1      19.385   2.860  52.029  1.00  0.00    +0.064 C 
ATOM     14  H   UNL     1      20.573   5.312  51.591  1.00  0.00    +0.168 HD
ATOM     15  C   UNL     1      23.996   2.884  49.733  1.00  0.00    +0.049 C 
BRANCH  11  16
ATOM     16  N   UNL     1      22.835   5.822  50.468  1.00  0.00    -0.355 N 
ATOM     17  C   UNL     1      22.936   6.380  49.104  1.00  0.00    +0.133 C 
ATOM     18  C   UNL     1      23.876   6.282  51.412  1.00  0.00    +0.133 C 
ATOM     19  C   UNL     1      24.385   6.789  48.766  1.00  0.00    +0.105 C 
ATOM     20  C   UNL     1      24.391   7.690  51.037  1.00  0.00    +0.105 C 
ATOM     21  N   UNL     1      24.945   7.819  49.672  1.00  0.00    -0.303 NA
ATOM     22  C   UNL     1      26.403   7.768  49.667  1.00  0.00    +0.105 C 
ENDBRANCH  11  16
ENDBRANCH   7   8
ENDBRANCH   1   7
BRANCH   6  23
ATOM     23  O   UNL     1      19.853  -0.487  52.704  1.00  0.00    -0.504 OA
ATOM     24  H   UNL     1      19.416   0.372  52.610  1.00  0.00    +0.293 HD
ENDBRANCH   6  23
BRANCH   3  25
ATOM     25  C   UNL     1      25.361   0.006  53.829  1.00  0.00    +0.335 C 
ATOM     26  O   UNL     1      26.122   0.805  53.315  1.00  0.00    -0.246 OA
BRANCH  25  27
ATOM     27  O   UNL     1      25.794  -0.882  54.740  1.00  0.00    -0.478 OA
ATOM     28  H   UNL     1      25.166  -0.781  55.485  1.00  0.00    +0.297 HD
ENDBRANCH  25  27
ENDBRANCH   3  25
BRANCH   5  29
ATOM     29  O   UNL     1      20.838  -1.441  54.969  1.00  0.00    -0.504 OA
ATOM     30  H   UNL     1      20.256  -1.980  54.395  1.00  0.00    +0.293 HD
ENDBRANCH   5  29
TORSDOF 7
ENDMDL
MODEL 9
REMARK VINA RESULT:    -7.005      3.272      5.260
REMARK INTER + INTRA:          -9.986
REMARK INTER:                  -9.159
REMARK INTRA:                  -0.827
REMARK UNBOUND:                -0.729
REMARK SMILES Cc1[nH]c(N2CCN(C)CC2)c(C)c1Cc1cc(C(=O)O)cc(O)c1O
REMARK SMILES IDX 16 1 17 2 18 3 22 4 23 5 25 6 15 7 14 8 2 9 3 10 4 11 12 12
REMARK SMILES IDX 1 13 13 15 5 16 6 17 11 18 7 19 10 20 8 21 9 22 26 23 19 25
REMARK SMILES IDX 20 26 21 27 24 29
REMARK H PARENT 3 14 26 24 21 28 24 30
ROOT
ATOM      1  C   UNL     1      22.170   0.973  53.196  1.00  0.00    +0.003 A 
ATOM      2  C   UNL     1      23.545   1.047  52.873  1.00  0.00    +0.023 A 
ATOM      3  C   UNL     1      24.488   0.157  53.416  1.00  0.00    +0.064 A 
ATOM      4  C   UNL     1      24.070  -0.841  54.296  1.00  0.00    +0.065 A 
ATOM      5  C   UNL     1      22.722  -0.931  54.606  1.00  0.00    +0.158 A 
ATOM      6  C   UNL     1      21.777  -0.047  54.071  1.00  0.00    +0.161 A 
ENDROOT
BRANCH   1   7
ATOM      7  C   UNL     1      21.220   1.963  52.561  1.00  0.00    +0.077 C 
BRANCH   7   8
ATOM      8  C   UNL     1      21.904   2.531  51.350  1.00  0.00    -0.018 A 
ATOM      9  C   UNL     1      21.920   1.960  50.084  1.00  0.00    +0.017 A 
ATOM     10  N   UNL     1      22.645   2.785  49.267  1.00  0.00    -0.345 N 
ATOM     11  C   UNL     1      23.096   3.878  49.955  1.00  0.00    +0.109 A 
ATOM     12  C   UNL     1      22.630   3.778  51.255  1.00  0.00    -0.005 A 
ATOM     13  C   UNL     1      21.318   0.707  49.557  1.00  0.00    +0.064 C 
ATOM     14  H   UNL     1      22.873   2.610  48.300  1.00  0.00    +0.168 HD
ATOM     15  C   UNL     1      22.819   4.765  52.351  1.00  0.00    +0.049 C 
BRANCH  11  16
ATOM     16  N   UNL     1      23.870   4.772  49.283  1.00  0.00    -0.355 N 
ATOM     17  C   UNL     1      25.315   4.874  49.571  1.00  0.00    +0.133 C 
ATOM     18  C   UNL     1      23.231   6.027  48.834  1.00  0.00    +0.133 C 
ATOM     19  C   UNL     1      25.715   6.314  49.958  1.00  0.00    +0.105 C 
ATOM     20  C   UNL     1      24.243   6.947  48.113  1.00  0.00    +0.105 C 
ATOM     21  N   UNL     1      25.436   7.318  48.905  1.00  0.00    -0.303 NA
ATOM     22  C   UNL     1      25.312   8.651  49.486  1.00  0.00    +0.105 C 
ENDBRANCH  11  16
ENDBRANCH   7   8
ENDBRANCH   1   7
BRANCH   6  23
ATOM     23  O   UNL     1      20.485  -0.279  54.468  1.00  0.00    -0.504 OA
ATOM     24  H   UNL     1      20.328  -1.232  54.536  1.00  0.00    +0.293 HD
ENDBRANCH   6  23
BRANCH   3  25
ATOM     25  C   UNL     1      25.908   0.311  53.019  1.00  0.00    +0.335 C 
ATOM     26  O   UNL     1      26.463  -0.283  52.113  1.00  0.00    -0.246 OA
BRANCH  25  27
ATOM     27  O   UNL     1      26.570   1.200  53.779  1.00  0.00    -0.478 OA
ATOM     28  H   UNL     1      26.313   0.967  54.695  1.00  0.00    +0.297 HD
ENDBRANCH  25  27
ENDBRANCH   3  25
BRANCH   5  29
ATOM     29  O   UNL     1      22.312  -1.918  55.461  1.00  0.00    -0.504 OA
ATOM     30  H   UNL     1      21.406  -2.136  55.162  1.00  0.00    +0.293 HD
ENDBRANCH   5  29
TORSDOF 7
ENDMDL
