MODEL 1
REMARK VINA RESULT:    -8.388      0.000      0.000
REMARK INTER + INTRA:         -12.901
REMARK INTER:                 -11.821
REMARK INTRA:                  -1.080
REMARK UNBOUND:                -1.080
REMARK SMILES CN(CC/N=N/Nc1ccc2ncnc(-c3cccc(Cl)c3)c2c1)c1ccccn1
REMARK SMILES IDX 5 1 6 2 4 3 3 4 2 5 1 6 25 7 26 8 30 9 27 10 29 11 28 12
REMARK SMILES IDX 7 13 8 15 9 16 24 17 10 18 23 19 11 20 15 21 12 22 14 23
REMARK SMILES IDX 13 24 16 25 17 26 22 27 18 28 20 29 19 30 21 31
REMARK H PARENT 7 14
ROOT
ATOM      1  N   UNL     1      22.224   3.919  50.087  1.00  0.00    -0.169 NA
ATOM      2  N   UNL     1      23.262   3.233  50.126  1.00  0.00    -0.075 NA
ENDROOT
BRANCH   1   3
ATOM      3  C   UNL     1      22.504   5.361  50.209  1.00  0.00    +0.190 C 
BRANCH   3   4
ATOM      4  C   UNL     1      23.448   5.831  49.095  1.00  0.00    +0.143 C 
BRANCH   4   5
ATOM      5  N   UNL     1      24.542   6.659  49.639  1.00  0.00    -0.358 N 
ATOM      6  C   UNL     1      24.444   6.941  51.072  1.00  0.00    +0.145 C 
BRANCH   5   7
ATOM      7  C   UNL     1      25.833   6.277  49.234  1.00  0.00    +0.128 A 
ATOM      8  C   UNL     1      26.186   4.924  49.222  1.00  0.00    +0.047 A 
ATOM      9  N   UNL     1      26.711   7.216  48.818  1.00  0.00    -0.239 NA
ATOM     10  C   UNL     1      27.458   4.534  48.805  1.00  0.00    +0.005 A 
ATOM     11  C   UNL     1      27.941   6.819  48.417  1.00  0.00    +0.113 A 
ATOM     12  C   UNL     1      28.359   5.503  48.396  1.00  0.00    +0.020 A 
ENDBRANCH   5   7
ENDBRANCH   4   5
ENDBRANCH   3   4
ENDBRANCH   1   3
BRANCH   2  13
ATOM     13  N   UNL     1      22.851   1.955  50.041  1.00  0.00    -0.260 N 
ATOM     14  H   UNL     1      23.204   1.452  49.234  1.00  0.00    +0.192 HD
BRANCH  13  15
ATOM     15  C   UNL     1      22.697   1.205  51.217  1.00  0.00    +0.059 A 
ATOM     16  C   UNL     1      21.494   0.596  51.573  1.00  0.00    +0.030 A 
ATOM     17  C   UNL     1      23.815   0.945  52.018  1.00  0.00    +0.040 A 
ATOM     18  C   UNL     1      21.404  -0.191  52.728  1.00  0.00    +0.031 A 
ATOM     19  C   UNL     1      23.729   0.136  53.185  1.00  0.00    +0.029 A 
ATOM     20  C   UNL     1      22.499  -0.425  53.545  1.00  0.00    +0.074 A 
ATOM     21  C   UNL     1      24.792  -0.167  54.055  1.00  0.00    +0.082 A 
ATOM     22  N   UNL     1      22.334  -1.178  54.637  1.00  0.00    -0.236 NA
ATOM     23  N   UNL     1      24.640  -0.912  55.173  1.00  0.00    -0.236 NA
ATOM     24  C   UNL     1      23.412  -1.382  55.403  1.00  0.00    +0.223 A 
BRANCH  21  25
ATOM     25  C   UNL     1      26.173   0.294  53.843  1.00  0.00    +0.002 A 
ATOM     26  C   UNL     1      26.485   1.664  53.799  1.00  0.00    +0.010 A 
ATOM     27  C   UNL     1      27.211  -0.633  53.657  1.00  0.00    +0.030 A 
ATOM     28  C   UNL     1      27.797   2.097  53.596  1.00  0.00    +0.002 A 
ATOM     29  C   UNL     1      28.520  -0.198  53.454  1.00  0.00    +0.041 A 
ATOM     30  C   UNL     1      28.818   1.163  53.426  1.00  0.00    +0.020 A 
ATOM     31 Cl   UNL     1      29.780  -1.351  53.239  1.00  0.00    -0.084 Cl
ENDBRANCH  21  25
ENDBRANCH  13  15
ENDBRANCH   2  13
TORSDOF 7
ENDMDL
MODEL 2
REMARK VINA RESULT:    -8.311      2.593      5.364
REMARK INTER + INTRA:         -12.792
REMARK INTER:                 -10.735
REMARK INTRA:                  -2.057
REMARK UNBOUND:                -1.080
REMARK SMILES CN(CC/N=N/Nc1ccc2ncnc(-c3cccc(Cl)c3)c2c1)c1ccccn1
REMARK SMILES IDX 5 1 6 2 4 3 3 4 2 5 1 6 25 7 26 8 30 9 27 10 29 11 28 12
REMARK SMILES IDX 7 13 8 15 9 16 24 17 10 18 23 19 11 20 15 21 12 22 14 23
REMARK SMILES IDX 13 24 16 25 17 26 22 27 18 28 20 29 19 30 21 31
REMARK H PARENT 7 14
ROOT
ATOM      1  N   UNL     1      26.774   2.852  50.912  1.00  0.00    -0.169 NA
ATOM      2  N   UNL     1      25.901   1.992  51.129  1.00  0.00    -0.075 NA
ENDROOT
BRANCH   1   3
ATOM      3  C   UNL     1      26.521   3.602  49.668  1.00  0.00    +0.190 C 
BRANCH   3   4
ATOM      4  C   UNL     1      25.016   3.740  49.409  1.00  0.00    +0.143 C 
BRANCH   4   5
ATOM      5  N   UNL     1      24.450   4.880  50.155  1.00  0.00    -0.358 N 
ATOM      6  C   UNL     1      24.655   6.187  49.528  1.00  0.00    +0.145 C 
BRANCH   5   7
ATOM      7  C   UNL     1      23.139   4.689  50.626  1.00  0.00    +0.128 A 
ATOM      8  C   UNL     1      22.926   4.036  51.844  1.00  0.00    +0.047 A 
ATOM      9  N   UNL     1      22.094   5.174  49.919  1.00  0.00    -0.239 NA
ATOM     10  C   UNL     1      21.630   3.857  52.327  1.00  0.00    +0.005 A 
ATOM     11  C   UNL     1      20.844   4.991  50.404  1.00  0.00    +0.113 A 
ATOM     12  C   UNL     1      20.563   4.342  51.590  1.00  0.00    +0.020 A 
ENDBRANCH   5   7
ENDBRANCH   4   5
ENDBRANCH   3   4
ENDBRANCH   1   3
BRANCH   2  13
ATOM     13  N   UNL     1      26.280   1.373  52.261  1.00  0.00    -0.260 N 
ATOM     14  H   UNL     1      26.932   1.902  52.832  1.00  0.00    +0.192 HD
BRANCH  13  15
ATOM     15  C   UNL     1      25.350   0.585  52.957  1.00  0.00    +0.059 A 
ATOM     16  C   UNL     1      25.650  -0.052  54.160  1.00  0.00    +0.030 A 
ATOM     17  C   UNL     1      24.028   0.519  52.502  1.00  0.00    +0.040 A 
ATOM     18  C   UNL     1      24.672  -0.781  54.848  1.00  0.00    +0.031 A 
ATOM     19  C   UNL     1      23.029  -0.210  53.205  1.00  0.00    +0.029 A 
ATOM     20  C   UNL     1      23.368  -0.879  54.386  1.00  0.00    +0.074 A 
ATOM     21  C   UNL     1      21.684  -0.343  52.818  1.00  0.00    +0.082 A 
ATOM     22  N   UNL     1      22.492  -1.602  55.091  1.00  0.00    -0.236 NA
ATOM     23  N   UNL     1      20.788  -1.085  53.508  1.00  0.00    -0.236 NA
ATOM     24  C   UNL     1      21.244  -1.676  54.615  1.00  0.00    +0.223 A 
BRANCH  21  25
ATOM     25  C   UNL     1      21.112   0.305  51.628  1.00  0.00    +0.002 A 
ATOM     26  C   UNL     1      19.732   0.556  51.528  1.00  0.00    +0.010 A 
ATOM     27  C   UNL     1      21.936   0.667  50.551  1.00  0.00    +0.030 A 
ATOM     28  C   UNL     1      19.194   1.171  50.395  1.00  0.00    +0.002 A 
ATOM     29  C   UNL     1      21.395   1.280  49.421  1.00  0.00    +0.041 A 
ATOM     30  C   UNL     1      20.028   1.536  49.340  1.00  0.00    +0.020 A 
ATOM     31 Cl   UNL     1      22.424   1.727  48.116  1.00  0.00    -0.084 Cl
ENDBRANCH  21  25
ENDBRANCH  13  15
ENDBRANCH   2  13
TORSDOF 7
ENDMDL
MODEL 3
REMARK VINA RESULT:    -8.205      2.235      3.842
REMARK INTER + INTRA:         -12.643
REMARK INTER:                 -10.305
REMARK INTRA:                  -2.338
REMARK UNBOUND:                -1.080
REMARK SMILES CN(CC/N=N/Nc1ccc2ncnc(-c3cccc(Cl)c3)c2c1)c1ccccn1
REMARK SMILES IDX 5 1 6 2 4 3 3 4 2 5 1 6 25 7 26 8 30 9 27 10 29 11 28 12
REMARK SMILES IDX 7 13 8 15 9 16 24 17 10 18 23 19 11 20 15 21 12 22 14 23
REMARK SMILES IDX 13 24 16 25 17 26 22 27 18 28 20 29 19 30 21 31
REMARK H PARENT 7 14
ROOT
ATOM      1  N   UNL     1      24.709   6.151  50.576  1.00  0.00    -0.169 NA
ATOM      2  N   UNL     1      23.939   6.595  51.447  1.00  0.00    -0.075 NA
ENDROOT
BRANCH   1   3
ATOM      3  C   UNL     1      24.667   6.947  49.335  1.00  0.00    +0.190 C 
BRANCH   3   4
ATOM      4  C   UNL     1      24.009   6.154  48.199  1.00  0.00    +0.143 C 
BRANCH   4   5
ATOM      5  N   UNL     1      22.582   5.904  48.482  1.00  0.00    -0.358 N 
ATOM      6  C   UNL     1      21.649   6.701  47.684  1.00  0.00    +0.145 C 
BRANCH   5   7
ATOM      7  C   UNL     1      22.223   4.547  48.567  1.00  0.00    +0.128 A 
ATOM      8  C   UNL     1      23.201   3.585  48.839  1.00  0.00    +0.047 A 
ATOM      9  N   UNL     1      20.929   4.185  48.427  1.00  0.00    -0.239 NA
ATOM     10  C   UNL     1      22.851   2.240  48.943  1.00  0.00    +0.005 A 
ATOM     11  C   UNL     1      20.609   2.875  48.530  1.00  0.00    +0.113 A 
ATOM     12  C   UNL     1      21.526   1.873  48.781  1.00  0.00    +0.020 A 
ENDBRANCH   5   7
ENDBRANCH   4   5
ENDBRANCH   3   4
ENDBRANCH   1   3
BRANCH   2  13
ATOM     13  N   UNL     1      24.058   5.758  52.492  1.00  0.00    -0.260 N 
ATOM     14  H   UNL     1      24.212   6.216  53.384  1.00  0.00    +0.192 HD
BRANCH  13  15
ATOM     15  C   UNL     1      23.282   4.588  52.526  1.00  0.00    +0.059 A 
ATOM     16  C   UNL     1      21.920   4.576  52.230  1.00  0.00    +0.030 A 
ATOM     17  C   UNL     1      23.907   3.355  52.747  1.00  0.00    +0.040 A 
ATOM     18  C   UNL     1      21.200   3.375  52.221  1.00  0.00    +0.031 A 
ATOM     19  C   UNL     1      23.180   2.132  52.726  1.00  0.00    +0.029 A 
ATOM     20  C   UNL     1      21.804   2.153  52.473  1.00  0.00    +0.074 A 
ATOM     21  C   UNL     1      23.719   0.852  52.951  1.00  0.00    +0.082 A 
ATOM     22  N   UNL     1      21.050   1.050  52.457  1.00  0.00    -0.236 NA
ATOM     23  N   UNL     1      22.968  -0.272  52.957  1.00  0.00    -0.236 NA
ATOM     24  C   UNL     1      21.667  -0.111  52.706  1.00  0.00    +0.223 A 
BRANCH  21  25
ATOM     25  C   UNL     1      25.147   0.603  53.203  1.00  0.00    +0.002 A 
ATOM     26  C   UNL     1      26.059   0.462  52.143  1.00  0.00    +0.010 A 
ATOM     27  C   UNL     1      25.625   0.479  54.517  1.00  0.00    +0.030 A 
ATOM     28  C   UNL     1      27.414   0.224  52.388  1.00  0.00    +0.002 A 
ATOM     29  C   UNL     1      26.978   0.241  54.757  1.00  0.00    +0.041 A 
ATOM     30  C   UNL     1      27.875   0.117  53.699  1.00  0.00    +0.020 A 
ATOM     31 Cl   UNL     1      27.547   0.104  56.376  1.00  0.00    -0.084 Cl
ENDBRANCH  21  25
ENDBRANCH  13  15
ENDBRANCH   2  13
TORSDOF 7
ENDMDL
MODEL 4
REMARK VINA RESULT:    -8.182      3.177      5.385
REMARK INTER + INTRA:         -12.610
REMARK INTER:                 -10.434
REMARK INTRA:                  -2.176
REMARK UNBOUND:                -1.080
REMARK SMILES CN(CC/N=N/Nc1ccc2ncnc(-c3cccc(Cl)c3)c2c1)c1ccccn1
REMARK SMILES IDX 5 1 6 2 4 3 3 4 2 5 1 6 25 7 26 8 30 9 27 10 29 11 28 12
REMARK SMILES IDX 7 13 8 15 9 16 24 17 10 18 23 19 11 20 15 21 12 22 14 23
REMARK SMILES IDX 13 24 16 25 17 26 22 27 18 28 20 29 19 30 21 31
REMARK H PARENT 7 14
ROOT
ATOM      1  N   UNL     1      18.229   0.307  51.046  1.00  0.00    -0.169 NA
ATOM      2  N   UNL     1      18.802   0.753  52.058  1.00  0.00    -0.075 NA
ENDROOT
BRANCH   1   3
ATOM      3  C   UNL     1      17.717   1.381  50.177  1.00  0.00    +0.190 C 
BRANCH   3   4
ATOM      4  C   UNL     1      18.859   2.283  49.690  1.00  0.00    +0.143 C 
BRANCH   4   5
ATOM      5  N   UNL     1      18.643   3.683  50.103  1.00  0.00    -0.358 N 
ATOM      6  C   UNL     1      17.445   3.907  50.913  1.00  0.00    +0.145 C 
BRANCH   5   7
ATOM      7  C   UNL     1      19.784   4.336  50.603  1.00  0.00    +0.128 A 
ATOM      8  C   UNL     1      20.413   3.851  51.754  1.00  0.00    +0.047 A 
ATOM      9  N   UNL     1      20.289   5.403  49.946  1.00  0.00    -0.239 NA
ATOM     10  C   UNL     1      21.555   4.481  52.247  1.00  0.00    +0.005 A 
ATOM     11  C   UNL     1      21.397   6.002  50.439  1.00  0.00    +0.113 A 
ATOM     12  C   UNL     1      22.058   5.585  51.578  1.00  0.00    +0.020 A 
ENDBRANCH   5   7
ENDBRANCH   4   5
ENDBRANCH   3   4
ENDBRANCH   1   3
BRANCH   2  13
ATOM     13  N   UNL     1      19.179  -0.329  52.763  1.00  0.00    -0.260 N 
ATOM     14  H   UNL     1      18.757  -1.199  52.456  1.00  0.00    +0.192 HD
BRANCH  13  15
ATOM     15  C   UNL     1      20.498  -0.415  53.234  1.00  0.00    +0.059 A 
ATOM     16  C   UNL     1      20.875  -1.265  54.273  1.00  0.00    +0.030 A 
ATOM     17  C   UNL     1      21.513   0.283  52.569  1.00  0.00    +0.040 A 
ATOM     18  C   UNL     1      22.215  -1.360  54.671  1.00  0.00    +0.031 A 
ATOM     19  C   UNL     1      22.876   0.179  52.963  1.00  0.00    +0.029 A 
ATOM     20  C   UNL     1      23.221  -0.646  54.039  1.00  0.00    +0.074 A 
ATOM     21  C   UNL     1      23.957   0.851  52.366  1.00  0.00    +0.082 A 
ATOM     22  N   UNL     1      24.476  -0.779  54.482  1.00  0.00    -0.236 NA
ATOM     23  N   UNL     1      25.229   0.742  52.811  1.00  0.00    -0.236 NA
ATOM     24  C   UNL     1      25.420  -0.073  53.850  1.00  0.00    +0.223 A 
BRANCH  21  25
ATOM     25  C   UNL     1      23.820   1.740  51.201  1.00  0.00    +0.002 A 
ATOM     26  C   UNL     1      22.760   1.587  50.290  1.00  0.00    +0.010 A 
ATOM     27  C   UNL     1      24.764   2.751  50.964  1.00  0.00    +0.030 A 
ATOM     28  C   UNL     1      22.634   2.432  49.185  1.00  0.00    +0.002 A 
ATOM     29  C   UNL     1      24.635   3.593  49.859  1.00  0.00    +0.041 A 
ATOM     30  C   UNL     1      23.573   3.440  48.971  1.00  0.00    +0.020 A 
ATOM     31 Cl   UNL     1      25.797   4.835  49.592  1.00  0.00    -0.084 Cl
ENDBRANCH  21  25
ENDBRANCH  13  15
ENDBRANCH   2  13
TORSDOF 7
ENDMDL
MODEL 5
REMARK VINA RESULT:    -8.169      1.710      2.644
REMARK INTER + INTRA:         -12.593
REMARK INTER:                 -11.733
REMARK INTRA:                  -0.859
REMARK UNBOUND:                -1.080
REMARK SMILES CN(CC/N=N/Nc1ccc2ncnc(-c3cccc(Cl)c3)c2c1)c1ccccn1
REMARK SMILES IDX 5 1 6 2 4 3 3 4 2 5 1 6 25 7 26 8 30 9 27 10 29 11 28 12
REMARK SMILES IDX 7 13 8 15 9 16 24 17 10 18 23 19 11 20 15 21 12 22 14 23
REMARK SMILES IDX 13 24 16 25 17 26 22 27 18 28 20 29 19 30 21 31
REMARK H PARENT 7 14
ROOT
ATOM      1  N   UNL     1      25.108   3.751  49.507  1.00  0.00    -0.169 NA
ATOM      2  N   UNL     1      24.513   3.541  50.580  1.00  0.00    -0.075 NA
ENDROOT
BRANCH   1   3
ATOM      3  C   UNL     1      25.870   5.013  49.530  1.00  0.00    +0.190 C 
BRANCH   3   4
ATOM      4  C   UNL     1      27.205   4.860  48.791  1.00  0.00    +0.143 C 
BRANCH   4   5
ATOM      5  N   UNL     1      27.648   6.147  48.221  1.00  0.00    -0.358 N 
ATOM      6  C   UNL     1      27.196   7.331  48.954  1.00  0.00    +0.145 C 
BRANCH   5   7
ATOM      7  C   UNL     1      29.007   6.201  47.862  1.00  0.00    +0.128 A 
ATOM      8  C   UNL     1      29.506   7.324  47.196  1.00  0.00    +0.047 A 
ATOM      9  N   UNL     1      29.831   5.185  48.201  1.00  0.00    -0.239 NA
ATOM     10  C   UNL     1      30.856   7.392  46.852  1.00  0.00    +0.005 A 
ATOM     11  C   UNL     1      31.137   5.269  47.859  1.00  0.00    +0.113 A 
ATOM     12  C   UNL     1      31.691   6.340  47.187  1.00  0.00    +0.020 A 
ENDBRANCH   5   7
ENDBRANCH   4   5
ENDBRANCH   3   4
ENDBRANCH   1   3
BRANCH   2  13
ATOM     13  N   UNL     1      23.843   2.389  50.399  1.00  0.00    -0.260 N 
ATOM     14  H   UNL     1      24.101   1.880  49.560  1.00  0.00    +0.192 HD
BRANCH  13  15
ATOM     15  C   UNL     1      23.504   1.609  51.515  1.00  0.00    +0.059 A 
ATOM     16  C   UNL     1      22.186   1.322  51.866  1.00  0.00    +0.030 A 
ATOM     17  C   UNL     1      24.519   0.985  52.251  1.00  0.00    +0.040 A 
ATOM     18  C   UNL     1      21.899   0.491  52.955  1.00  0.00    +0.031 A 
ATOM     19  C   UNL     1      24.230   0.130  53.350  1.00  0.00    +0.029 A 
ATOM     20  C   UNL     1      22.898  -0.104  53.710  1.00  0.00    +0.074 A 
ATOM     21  C   UNL     1      25.181  -0.526  54.153  1.00  0.00    +0.082 A 
ATOM     22  N   UNL     1      22.548  -0.877  54.743  1.00  0.00    -0.236 NA
ATOM     23  N   UNL     1      24.845  -1.297  55.212  1.00  0.00    -0.236 NA
ATOM     24  C   UNL     1      23.539  -1.433  55.449  1.00  0.00    +0.223 A 
BRANCH  21  25
ATOM     25  C   UNL     1      26.632  -0.443  53.928  1.00  0.00    +0.002 A 
ATOM     26  C   UNL     1      27.330  -1.480  53.283  1.00  0.00    +0.010 A 
ATOM     27  C   UNL     1      27.358   0.672  54.375  1.00  0.00    +0.030 A 
ATOM     28  C   UNL     1      28.708  -1.396  53.073  1.00  0.00    +0.002 A 
ATOM     29  C   UNL     1      28.734   0.752  54.164  1.00  0.00    +0.041 A 
ATOM     30  C   UNL     1      29.412  -0.275  53.512  1.00  0.00    +0.020 A 
ATOM     31 Cl   UNL     1      29.604   2.134  54.710  1.00  0.00    -0.084 Cl
ENDBRANCH  21  25
ENDBRANCH  13  15
ENDBRANCH   2  13
TORSDOF 7
ENDMDL
MODEL 6
REMARK VINA RESULT:    -8.117      3.023      8.370
REMARK INTER + INTRA:         -12.519
REMARK INTER:                 -10.881
REMARK INTRA:                  -1.639
REMARK UNBOUND:                -1.080
REMARK SMILES CN(CC/N=N/Nc1ccc2ncnc(-c3cccc(Cl)c3)c2c1)c1ccccn1
REMARK SMILES IDX 5 1 6 2 4 3 3 4 2 5 1 6 25 7 26 8 30 9 27 10 29 11 28 12
REMARK SMILES IDX 7 13 8 15 9 16 24 17 10 18 23 19 11 20 15 21 12 22 14 23
REMARK SMILES IDX 13 24 16 25 17 26 22 27 18 28 20 29 19 30 21 31
REMARK H PARENT 7 14
ROOT
ATOM      1  N   UNL     1      27.250   2.357  51.665  1.00  0.00    -0.169 NA
ATOM      2  N   UNL     1      26.282   2.857  51.061  1.00  0.00    -0.075 NA
ENDROOT
BRANCH   1   3
ATOM      3  C   UNL     1      26.866   1.166  52.444  1.00  0.00    +0.190 C 
BRANCH   3   4
ATOM      4  C   UNL     1      25.407   0.780  52.171  1.00  0.00    +0.143 C 
BRANCH   4   5
ATOM      5  N   UNL     1      24.955  -0.279  53.095  1.00  0.00    -0.358 N 
ATOM      6  C   UNL     1      25.885  -0.581  54.184  1.00  0.00    +0.145 C 
BRANCH   5   7
ATOM      7  C   UNL     1      23.619  -0.164  53.519  1.00  0.00    +0.128 A 
ATOM      8  C   UNL     1      22.762   0.740  52.884  1.00  0.00    +0.047 A 
ATOM      9  N   UNL     1      23.160  -0.960  54.511  1.00  0.00    -0.239 NA
ATOM     10  C   UNL     1      21.432   0.847  53.286  1.00  0.00    +0.005 A 
ATOM     11  C   UNL     1      21.866  -0.841  54.888  1.00  0.00    +0.113 A 
ATOM     12  C   UNL     1      20.972   0.041  54.315  1.00  0.00    +0.020 A 
ENDBRANCH   5   7
ENDBRANCH   4   5
ENDBRANCH   3   4
ENDBRANCH   1   3
BRANCH   2  13
ATOM     13  N   UNL     1      26.773   3.940  50.432  1.00  0.00    -0.260 N 
ATOM     14  H   UNL     1      27.703   3.817  50.047  1.00  0.00    +0.192 HD
BRANCH  13  15
ATOM     15  C   UNL     1      25.902   4.758  49.695  1.00  0.00    +0.059 A 
ATOM     16  C   UNL     1      26.310   5.949  49.096  1.00  0.00    +0.030 A 
ATOM     17  C   UNL     1      24.599   4.318  49.437  1.00  0.00    +0.040 A 
ATOM     18  C   UNL     1      25.420   6.702  48.321  1.00  0.00    +0.031 A 
ATOM     19  C   UNL     1      23.696   5.075  48.640  1.00  0.00    +0.029 A 
ATOM     20  C   UNL     1      24.117   6.291  48.089  1.00  0.00    +0.074 A 
ATOM     21  C   UNL     1      22.368   4.721  48.340  1.00  0.00    +0.082 A 
ATOM     22  N   UNL     1      23.321   7.068  47.348  1.00  0.00    -0.236 NA
ATOM     23  N   UNL     1      21.544   5.503  47.607  1.00  0.00    -0.236 NA
ATOM     24  C   UNL     1      22.070   6.640  47.147  1.00  0.00    +0.223 A 
BRANCH  21  25
ATOM     25  C   UNL     1      21.739   3.470  48.791  1.00  0.00    +0.002 A 
ATOM     26  C   UNL     1      22.145   2.225  48.280  1.00  0.00    +0.010 A 
ATOM     27  C   UNL     1      20.697   3.498  49.731  1.00  0.00    +0.030 A 
ATOM     28  C   UNL     1      21.543   1.040  48.710  1.00  0.00    +0.002 A 
ATOM     29  C   UNL     1      20.098   2.313  50.159  1.00  0.00    +0.041 A 
ATOM     30  C   UNL     1      20.518   1.084  49.655  1.00  0.00    +0.020 A 
ATOM     31 Cl   UNL     1      18.830   2.368  51.321  1.00  0.00    -0.084 Cl
ENDBRANCH  21  25
ENDBRANCH  13  15
ENDBRANCH   2  13
TORSDOF 7
ENDMDL
MODEL 7
REMARK VINA RESULT:    -8.009      1.274      1.697
REMARK INTER + INTRA:         -12.367
REMARK INTER:                 -11.330
REMARK INTRA:                  -1.037
REMARK UNBOUND:                -1.080
REMARK SMILES CN(CC/N=N/Nc1ccc2ncnc(-c3cccc(Cl)c3)c2c1)c1ccccn1
REMARK SMILES IDX 5 1 6 2 4 3 3 4 2 5 1 6 25 7 26 8 30 9 27 10 29 11 28 12
REMARK SMILES IDX 7 13 8 15 9 16 24 17 10 18 23 19 11 20 15 21 12 22 14 23
REMARK SMILES IDX 13 24 16 25 17 26 22 27 18 28 20 29 19 30 21 31
REMARK H PARENT 7 14
ROOT
ATOM      1  N   UNL     1      21.014   4.091  49.078  1.00  0.00    -0.169 NA
ATOM      2  N   UNL     1      21.748   3.091  49.175  1.00  0.00    -0.075 NA
ENDROOT
BRANCH   1   3
ATOM      3  C   UNL     1      21.786   5.346  49.022  1.00  0.00    +0.190 C 
BRANCH   3   4
ATOM      4  C   UNL     1      23.018   5.272  49.933  1.00  0.00    +0.143 C 
BRANCH   4   5
ATOM      5  N   UNL     1      23.983   6.341  49.611  1.00  0.00    -0.358 N 
ATOM      6  C   UNL     1      23.975   7.475  50.537  1.00  0.00    +0.145 C 
BRANCH   5   7
ATOM      7  C   UNL     1      25.277   5.895  49.288  1.00  0.00    +0.128 A 
ATOM      8  C   UNL     1      25.610   4.548  49.459  1.00  0.00    +0.047 A 
ATOM      9  N   UNL     1      26.178   6.762  48.776  1.00  0.00    -0.239 NA
ATOM     10  C   UNL     1      26.885   4.093  49.125  1.00  0.00    +0.005 A 
ATOM     11  C   UNL     1      27.410   6.303  48.459  1.00  0.00    +0.113 A 
ATOM     12  C   UNL     1      27.810   4.990  48.617  1.00  0.00    +0.020 A 
ENDBRANCH   5   7
ENDBRANCH   4   5
ENDBRANCH   3   4
ENDBRANCH   1   3
BRANCH   2  13
ATOM     13  N   UNL     1      20.913   2.039  49.251  1.00  0.00    -0.260 N 
ATOM     14  H   UNL     1      20.860   1.482  48.405  1.00  0.00    +0.192 HD
BRANCH  13  15
ATOM     15  C   UNL     1      20.804   1.336  50.461  1.00  0.00    +0.059 A 
ATOM     16  C   UNL     1      19.598   0.813  50.924  1.00  0.00    +0.030 A 
ATOM     17  C   UNL     1      21.961   1.034  51.188  1.00  0.00    +0.040 A 
ATOM     18  C   UNL     1      19.548   0.068  52.109  1.00  0.00    +0.031 A 
ATOM     19  C   UNL     1      21.916   0.267  52.385  1.00  0.00    +0.029 A 
ATOM     20  C   UNL     1      20.685  -0.206  52.853  1.00  0.00    +0.074 A 
ATOM     21  C   UNL     1      23.021  -0.072  53.186  1.00  0.00    +0.082 A 
ATOM     22  N   UNL     1      20.558  -0.914  53.980  1.00  0.00    -0.236 NA
ATOM     23  N   UNL     1      22.909  -0.772  54.338  1.00  0.00    -0.236 NA
ATOM     24  C   UNL     1      21.677  -1.159  54.672  1.00  0.00    +0.223 A 
BRANCH  21  25
ATOM     25  C   UNL     1      24.407   0.297  52.859  1.00  0.00    +0.002 A 
ATOM     26  C   UNL     1      24.715   1.554  52.307  1.00  0.00    +0.010 A 
ATOM     27  C   UNL     1      25.454  -0.613  53.071  1.00  0.00    +0.030 A 
ATOM     28  C   UNL     1      26.032   1.899  51.997  1.00  0.00    +0.002 A 
ATOM     29  C   UNL     1      26.768  -0.265  52.759  1.00  0.00    +0.041 A 
ATOM     30  C   UNL     1      27.062   0.988  52.226  1.00  0.00    +0.020 A 
ATOM     31 Cl   UNL     1      28.040  -1.391  53.038  1.00  0.00    -0.084 Cl
ENDBRANCH  21  25
ENDBRANCH  13  15
ENDBRANCH   2  13
TORSDOF 7
ENDMDL
MODEL 8
REMARK VINA RESULT:    -7.993      3.910      7.000
REMARK INTER + INTRA:         -12.344
REMARK INTER:                 -10.265
REMARK INTRA:                  -2.078
REMARK UNBOUND:                -1.080
REMARK SMILES CN(CC/N=N/Nc1ccc2ncnc(-c3cccc(Cl)c3)c2c1)c1ccccn1
REMARK SMILES IDX 5 1 6 2 4 3 3 4 2 5 1 6 25 7 26 8 30 9 27 10 29 11 28 12
REMARK SMILES IDX 7 13 8 15 9 16 24 17 10 18 23 19 11 20 15 21 12 22 14 23
REMARK SMILES IDX 13 24 16 25 17 26 22 27 18 28 20 29 19 30 21 31
REMARK H PARENT 7 14
ROOT
ATOM      1  N   UNL     1      17.710  -1.320  52.751  1.00  0.00    -0.169 NA
ATOM      2  N   UNL     1      18.622  -0.546  53.094  1.00  0.00    -0.075 NA
ENDROOT
BRANCH   1   3
ATOM      3  C   UNL     1      16.709  -0.657  51.895  1.00  0.00    +0.190 C 
BRANCH   3   4
ATOM      4  C   UNL     1      17.388   0.120  50.761  1.00  0.00    +0.143 C 
BRANCH   4   5
ATOM      5  N   UNL     1      16.834   1.484  50.645  1.00  0.00    -0.358 N 
ATOM      6  C   UNL     1      15.640   1.732  51.454  1.00  0.00    +0.145 C 
BRANCH   5   7
ATOM      7  C   UNL     1      17.784   2.518  50.724  1.00  0.00    +0.128 A 
ATOM      8  C   UNL     1      18.809   2.450  51.672  1.00  0.00    +0.047 A 
ATOM      9  N   UNL     1      17.725   3.550  49.854  1.00  0.00    -0.239 NA
ATOM     10  C   UNL     1      19.765   3.462  51.745  1.00  0.00    +0.005 A 
ATOM     11  C   UNL     1      18.661   4.523  49.940  1.00  0.00    +0.113 A 
ATOM     12  C   UNL     1      19.689   4.526  50.862  1.00  0.00    +0.020 A 
ENDBRANCH   5   7
ENDBRANCH   4   5
ENDBRANCH   3   4
ENDBRANCH   1   3
BRANCH   2  13
ATOM     13  N   UNL     1      19.428  -1.272  53.889  1.00  0.00    -0.260 N 
ATOM     14  H   UNL     1      19.197  -2.259  53.935  1.00  0.00    +0.192 HD
BRANCH  13  15
ATOM     15  C   UNL     1      20.794  -0.955  53.955  1.00  0.00    +0.059 A 
ATOM     16  C   UNL     1      21.639  -1.454  54.945  1.00  0.00    +0.030 A 
ATOM     17  C   UNL     1      21.376  -0.205  52.926  1.00  0.00    +0.040 A 
ATOM     18  C   UNL     1      23.007  -1.156  54.936  1.00  0.00    +0.031 A 
ATOM     19  C   UNL     1      22.768   0.089  52.907  1.00  0.00    +0.029 A 
ATOM     20  C   UNL     1      23.586  -0.385  53.939  1.00  0.00    +0.074 A 
ATOM     21  C   UNL     1      23.435   0.843  51.926  1.00  0.00    +0.082 A 
ATOM     22  N   UNL     1      24.897  -0.134  54.003  1.00  0.00    -0.236 NA
ATOM     23  N   UNL     1      24.757   1.123  51.984  1.00  0.00    -0.236 NA
ATOM     24  C   UNL     1      25.420   0.614  53.025  1.00  0.00    +0.223 A 
BRANCH  21  25
ATOM     25  C   UNL     1      22.770   1.407  50.741  1.00  0.00    +0.002 A 
ATOM     26  C   UNL     1      21.715   0.727  50.106  1.00  0.00    +0.010 A 
ATOM     27  C   UNL     1      23.194   2.632  50.203  1.00  0.00    +0.030 A 
ATOM     28  C   UNL     1      21.088   1.265  48.980  1.00  0.00    +0.002 A 
ATOM     29  C   UNL     1      22.565   3.166  49.079  1.00  0.00    +0.041 A 
ATOM     30  C   UNL     1      21.512   2.490  48.467  1.00  0.00    +0.020 A 
ATOM     31 Cl   UNL     1      23.092   4.676  48.442  1.00  0.00    -0.084 Cl
ENDBRANCH  21  25
ENDBRANCH  13  15
ENDBRANCH   2  13
TORSDOF 7
ENDMDL
MODEL 9
REMARK VINA RESULT:    -7.948      2.714      3.475
REMARK INTER + INTRA:         -12.281
REMARK INTER:                  -9.996
REMARK INTRA:                  -2.285
REMARK UNBOUND:                -1.080
REMARK SMILES CN(CC/N=N/Nc1ccc2ncnc(-c3cccc(Cl)c3)c2c1)c1ccccn1
REMARK SMILES IDX 5 1 6 2 4 3 3 4 2 5 1 6 25 7 26 8 30 9 27 10 29 11 28 12
REMARK SMILES IDX 7 13 8 15 9 16 24 17 10 18 23 19 11 20 15 21 12 22 14 23
REMARK SMILES IDX 13 24 16 25 17 26 22 27 18 28 20 29 19 30 21 31
REMARK H PARENT 7 14
ROOT
ATOM      1  N   UNL     1      21.579   3.411  47.560  1.00  0.00    -0.169 NA
ATOM      2  N   UNL     1      22.505   2.748  48.063  1.00  0.00    -0.075 NA
ENDROOT
BRANCH   1   3
ATOM      3  C   UNL     1      21.976   4.803  47.284  1.00  0.00    +0.190 C 
BRANCH   3   4
ATOM      4  C   UNL     1      20.973   5.789  47.896  1.00  0.00    +0.143 C 
BRANCH   4   5
ATOM      5  N   UNL     1      21.589   6.561  48.994  1.00  0.00    -0.358 N 
ATOM      6  C   UNL     1      20.966   7.859  49.256  1.00  0.00    +0.145 C 
BRANCH   5   7
ATOM      7  C   UNL     1      21.850   5.823  50.163  1.00  0.00    +0.128 A 
ATOM      8  C   UNL     1      20.836   5.054  50.741  1.00  0.00    +0.047 A 
ATOM      9  N   UNL     1      23.092   5.829  50.696  1.00  0.00    -0.239 NA
ATOM     10  C   UNL     1      21.091   4.305  51.889  1.00  0.00    +0.005 A 
ATOM     11  C   UNL     1      23.321   5.097  51.810  1.00  0.00    +0.113 A 
ATOM     12  C   UNL     1      22.362   4.329  52.441  1.00  0.00    +0.020 A 
ENDBRANCH   5   7
ENDBRANCH   4   5
ENDBRANCH   3   4
ENDBRANCH   1   3
BRANCH   2  13
ATOM     13  N   UNL     1      21.990   1.526  48.289  1.00  0.00    -0.260 N 
ATOM     14  H   UNL     1      22.475   0.771  47.816  1.00  0.00    +0.192 HD
BRANCH  13  15
ATOM     15  C   UNL     1      21.468   1.225  49.556  1.00  0.00    +0.059 A 
ATOM     16  C   UNL     1      20.110   1.006  49.781  1.00  0.00    +0.030 A 
ATOM     17  C   UNL     1      22.343   1.015  50.628  1.00  0.00    +0.040 A 
ATOM     18  C   UNL     1      19.642   0.651  51.053  1.00  0.00    +0.031 A 
ATOM     19  C   UNL     1      21.872   0.642  51.918  1.00  0.00    +0.029 A 
ATOM     20  C   UNL     1      20.499   0.474  52.128  1.00  0.00    +0.074 A 
ATOM     21  C   UNL     1      22.673   0.424  53.054  1.00  0.00    +0.082 A 
ATOM     22  N   UNL     1      19.979   0.146  53.315  1.00  0.00    -0.236 NA
ATOM     23  N   UNL     1      22.163   0.110  54.266  1.00  0.00    -0.236 NA
ATOM     24  C   UNL     1      20.836  -0.015  54.330  1.00  0.00    +0.223 A 
BRANCH  21  25
ATOM     25  C   UNL     1      24.141   0.516  53.043  1.00  0.00    +0.002 A 
ATOM     26  C   UNL     1      24.794   1.754  53.184  1.00  0.00    +0.010 A 
ATOM     27  C   UNL     1      24.924  -0.636  52.869  1.00  0.00    +0.030 A 
ATOM     28  C   UNL     1      26.188   1.836  53.172  1.00  0.00    +0.002 A 
ATOM     29  C   UNL     1      26.316  -0.549  52.857  1.00  0.00    +0.041 A 
ATOM     30  C   UNL     1      26.951   0.681  53.011  1.00  0.00    +0.020 A 
ATOM     31 Cl   UNL     1      27.259  -1.975  52.654  1.00  0.00    -0.084 Cl
ENDBRANCH  21  25
ENDBRANCH  13  15
ENDBRANCH   2  13
TORSDOF 7
ENDMDL
