REMARK SMILES Cc1cccc(C=C2C(=O)N(C)c3ncnc(-c4ccc(N5CCOCC5)[nH]4)c32)c1
REMARK SMILES IDX 7 1 8 2 9 3 10 4 11 5 12 6 13 7 14 8 15 9 16 10 17 11 29 12
REMARK SMILES IDX 6 13 2 14 3 15 30 16 4 17 5 18 1 19 18 20 19 21 28 22 20 23
REMARK SMILES IDX 21 24 22 26 23 27 27 28 24 29 26 30 25 31
REMARK H PARENT 28 25
ROOT
ATOM      1  C   UNL     1      -1.891   0.070  -0.376  1.00  0.00    +0.022 C 
ATOM      2  C   UNL     1      -1.973  -1.084   0.306  1.00  0.00    +0.054 C 
ATOM      3  C   UNL     1      -3.242  -1.833   0.639  1.00  0.00    +0.260 C 
ATOM      4  O   UNL     1      -4.391  -1.460   0.502  1.00  0.00    -0.269 OA
ATOM      5  N   UNL     1      -2.806  -3.054   1.127  1.00  0.00    -0.295 N 
ATOM      6  C   UNL     1      -3.653  -4.130   1.562  1.00  0.00    +0.155 C 
ATOM      7  C   UNL     1      -1.411  -3.122   1.178  1.00  0.00    +0.147 A 
ATOM      8  N   UNL     1      -0.737  -4.194   1.613  1.00  0.00    -0.218 NA
ATOM      9  C   UNL     1       0.591  -4.040   1.597  1.00  0.00    +0.225 A 
ATOM     10  N   UNL     1       1.256  -2.933   1.221  1.00  0.00    -0.234 NA
ATOM     11  C   UNL     1       0.511  -1.868   0.829  1.00  0.00    +0.100 A 
ATOM     12  C   UNL     1      -0.856  -1.932   0.738  1.00  0.00    +0.058 A 
ENDROOT
BRANCH   1  13
ATOM     13  C   UNL     1      -3.001   0.904  -0.851  1.00  0.00    -0.025 A 
ATOM     14  C   UNL     1      -4.922   2.342  -0.428  1.00  0.00    -0.051 A 
ATOM     15  C   UNL     1      -5.043   2.567  -1.804  1.00  0.00    +0.003 A 
ATOM     16  C   UNL     1      -3.899   1.504   0.040  1.00  0.00    +0.011 A 
ATOM     17  C   UNL     1      -4.143   1.985  -2.696  1.00  0.00    +0.001 A 
ATOM     18  C   UNL     1      -3.122   1.161  -2.221  1.00  0.00    +0.008 A 
ATOM     19  C   UNL     1      -5.912   2.933   0.531  1.00  0.00    +0.044 C 
ENDBRANCH   1  13
BRANCH  11  20
ATOM     20  C   UNL     1       1.327  -0.688   0.579  1.00  0.00    +0.067 A 
ATOM     21  C   UNL     1       1.173   0.641   0.930  1.00  0.00    +0.032 A 
ATOM     22  N   UNL     1       2.549  -0.779  -0.052  1.00  0.00    -0.340 N 
ATOM     23  C   UNL     1       2.288   1.358   0.427  1.00  0.00    +0.047 A 
ATOM     24  C   UNL     1       3.149   0.451  -0.157  1.00  0.00    +0.106 A 
ATOM     25  H   UNL     1       2.929  -1.641  -0.412  1.00  0.00    +0.168 HD
BRANCH  24  26
ATOM     26  N   UNL     1       4.350   0.592  -0.790  1.00  0.00    -0.354 N 
ATOM     27  C   UNL     1       5.444  -0.370  -0.508  1.00  0.00    +0.146 C 
ATOM     28  C   UNL     1       4.895   1.952  -1.006  1.00  0.00    +0.146 C 
ATOM     29  C   UNL     1       6.293   0.128   0.675  1.00  0.00    +0.181 C 
ATOM     30  C   UNL     1       5.768   2.378   0.186  1.00  0.00    +0.181 C 
ATOM     31  O   UNL     1       6.832   1.438   0.421  1.00  0.00    -0.378 OA
ENDBRANCH  24  26
ENDBRANCH  11  20
TORSDOF 3
