REMARK SMILES Cc1cccc(C=C2C(=O)N(C)c3ncnc(C(=O)N4CCOCC4)c32)c1
REMARK SMILES IDX 7 1 8 2 9 3 10 4 11 5 12 6 13 7 14 8 15 9 16 10 17 11 26 12
REMARK SMILES IDX 6 13 2 14 3 15 27 16 4 17 5 18 1 19 18 20 19 21 20 22 21 23
REMARK SMILES IDX 25 24 22 25 24 26 23 27
REMARK H PARENT
ROOT
ATOM      1  C   UNL     1       1.078  -0.428  -0.101  1.00  0.00    +0.022 C 
ATOM      2  C   UNL     1       0.864   0.896  -0.051  1.00  0.00    +0.054 C 
ATOM      3  C   UNL     1       1.879   1.946   0.340  1.00  0.00    +0.260 C 
ATOM      4  O   UNL     1       3.050   1.787   0.624  1.00  0.00    -0.269 OA
ATOM      5  N   UNL     1       1.172   3.138   0.317  1.00  0.00    -0.295 N 
ATOM      6  C   UNL     1       1.710   4.434   0.628  1.00  0.00    +0.155 C 
ATOM      7  C   UNL     1      -0.162   2.942  -0.052  1.00  0.00    +0.147 A 
ATOM      8  N   UNL     1      -1.063   3.929  -0.137  1.00  0.00    -0.218 NA
ATOM      9  C   UNL     1      -2.286   3.529  -0.504  1.00  0.00    +0.225 A 
ATOM     10  N   UNL     1      -2.655   2.267  -0.773  1.00  0.00    -0.230 NA
ATOM     11  C   UNL     1      -1.680   1.320  -0.676  1.00  0.00    +0.141 A 
ATOM     12  C   UNL     1      -0.395   1.603  -0.301  1.00  0.00    +0.062 A 
ENDROOT
BRANCH   1  13
ATOM     13  C   UNL     1       2.347  -1.107   0.175  1.00  0.00    -0.025 A 
ATOM     14  C   UNL     1       4.603  -1.735  -0.491  1.00  0.00    -0.051 A 
ATOM     15  C   UNL     1       4.741  -2.455   0.702  1.00  0.00    +0.003 A 
ATOM     16  C   UNL     1       3.403  -1.056  -0.743  1.00  0.00    +0.011 A 
ATOM     17  C   UNL     1       3.689  -2.515   1.617  1.00  0.00    +0.001 A 
ATOM     18  C   UNL     1       2.493  -1.846   1.353  1.00  0.00    +0.008 A 
ATOM     19  C   UNL     1       5.746  -1.634  -1.456  1.00  0.00    +0.044 C 
ENDBRANCH   1  13
BRANCH  11  20
ATOM     20  C   UNL     1      -2.092  -0.049  -1.075  1.00  0.00    +0.273 C 
ATOM     21  O   UNL     1      -1.472  -0.592  -1.989  1.00  0.00    -0.267 OA
ATOM     22  N   UNL     1      -3.167  -0.654  -0.420  1.00  0.00    -0.333 N 
ATOM     23  C   UNL     1      -3.660  -0.238   0.899  1.00  0.00    +0.148 C 
ATOM     24  C   UNL     1      -3.486  -2.039  -0.772  1.00  0.00    +0.148 C 
ATOM     25  C   UNL     1      -5.123  -0.643   1.102  1.00  0.00    +0.181 C 
ATOM     26  C   UNL     1      -4.953  -2.370  -0.490  1.00  0.00    +0.181 C 
ATOM     27  O   UNL     1      -5.307  -2.046   0.863  1.00  0.00    -0.378 OA
ENDBRANCH  11  20
TORSDOF 2
