REMARK SMILES Cc1cccc(-c2cc(C)c(-c3ccccc3)[nH]2)c1
REMARK SMILES IDX 1 1 2 2 3 3 4 4 5 5 6 6 19 7 7 8 8 9 18 10 9 11 11 12 10 14
REMARK SMILES IDX 12 15 13 16 17 17 14 18 16 19 15 20
REMARK H PARENT 18 13
ROOT
ATOM      1  C   UNL     1      -4.429  -1.686  -2.163  1.00  0.00    +0.044 C 
ATOM      2  C   UNL     1      -3.910  -1.348  -0.797  1.00  0.00    -0.050 A 
ATOM      3  C   UNL     1      -4.657  -1.665   0.343  1.00  0.00    +0.003 A 
ATOM      4  C   UNL     1      -4.163  -1.368   1.612  1.00  0.00    +0.001 A 
ATOM      5  C   UNL     1      -2.913  -0.762   1.753  1.00  0.00    +0.010 A 
ATOM      6  C   UNL     1      -2.137  -0.455   0.628  1.00  0.00    -0.002 A 
ATOM      7  C   UNL     1      -2.648  -0.754  -0.644  1.00  0.00    +0.013 A 
ENDROOT
BRANCH   6   8
ATOM      8  C   UNL     1      -0.822   0.168   0.788  1.00  0.00    +0.046 A 
ATOM      9  C   UNL     1      -0.362   1.082   1.719  1.00  0.00    +0.032 A 
ATOM     10  N   UNL     1       0.250  -0.118  -0.026  1.00  0.00    -0.354 N 
ATOM     11  C   UNL     1       1.009   1.362   1.448  1.00  0.00    -0.025 A 
ATOM     12  C   UNL     1       1.367   0.593   0.350  1.00  0.00    +0.049 A 
ATOM     13  H   UNL     1       0.235  -0.794  -0.776  1.00  0.00    +0.167 HD
ATOM     14  C   UNL     1       1.867   2.311   2.207  1.00  0.00    +0.047 C 
BRANCH  12  15
ATOM     15  C   UNL     1       2.639   0.451  -0.355  1.00  0.00    -0.002 A 
ATOM     16  C   UNL     1       2.707   0.628  -1.743  1.00  0.00    +0.010 A 
ATOM     17  C   UNL     1       3.808   0.130   0.346  1.00  0.00    +0.010 A 
ATOM     18  C   UNL     1       3.922   0.485  -2.417  1.00  0.00    +0.001 A 
ATOM     19  C   UNL     1       5.022  -0.015  -0.328  1.00  0.00    +0.001 A 
ATOM     20  C   UNL     1       5.079   0.163  -1.710  1.00  0.00    +0.000 A 
ENDBRANCH  12  15
ENDBRANCH   6   8
TORSDOF 2
