REMARK SMILES Cc1cccc(C=C2C(=O)N(C)c3ncnc(-c4[nH]c(N5CCOCC5)cc4C)c32)c1
REMARK SMILES IDX 7 1 8 2 9 3 10 4 11 5 12 6 13 7 14 8 15 9 16 10 17 11 30 12
REMARK SMILES IDX 6 13 2 14 3 15 31 16 4 17 5 18 1 19 18 20 19 21 28 22 20 23
REMARK SMILES IDX 27 24 29 26 21 27 22 28 26 29 23 30 25 31 24 32
REMARK H PARENT 19 25
ROOT
ATOM      1  C   UNL     1      -1.521  -0.049   0.140  1.00  0.00    +0.022 C 
ATOM      2  C   UNL     1      -1.892  -1.255  -0.322  1.00  0.00    +0.054 C 
ATOM      3  C   UNL     1      -3.191  -1.975  -0.038  1.00  0.00    +0.260 C 
ATOM      4  O   UNL     1      -4.100  -1.620   0.686  1.00  0.00    -0.269 OA
ATOM      5  N   UNL     1      -3.120  -3.136  -0.793  1.00  0.00    -0.295 N 
ATOM      6  C   UNL     1      -4.140  -4.144  -0.875  1.00  0.00    +0.155 C 
ATOM      7  C   UNL     1      -1.921  -3.216  -1.508  1.00  0.00    +0.147 A 
ATOM      8  N   UNL     1      -1.599  -4.236  -2.313  1.00  0.00    -0.218 NA
ATOM      9  C   UNL     1      -0.396  -4.111  -2.888  1.00  0.00    +0.225 A 
ATOM     10  N   UNL     1       0.468  -3.096  -2.711  1.00  0.00    -0.234 NA
ATOM     11  C   UNL     1       0.081  -2.102  -1.878  1.00  0.00    +0.100 A 
ATOM     12  C   UNL     1      -1.136  -2.108  -1.246  1.00  0.00    +0.058 A 
ENDROOT
BRANCH   1  13
ATOM     13  C   UNL     1      -2.246   0.819   1.077  1.00  0.00    -0.025 A 
ATOM     14  C   UNL     1      -3.139   3.030   1.596  1.00  0.00    -0.051 A 
ATOM     15  C   UNL     1      -3.490   2.575   2.873  1.00  0.00    +0.003 A 
ATOM     16  C   UNL     1      -2.500   2.150   0.711  1.00  0.00    +0.011 A 
ATOM     17  C   UNL     1      -3.226   1.258   3.251  1.00  0.00    +0.001 A 
ATOM     18  C   UNL     1      -2.601   0.385   2.358  1.00  0.00    +0.008 A 
ATOM     19  C   UNL     1      -3.383   4.458   1.206  1.00  0.00    +0.044 C 
ENDBRANCH   1  13
BRANCH  11  20
ATOM     20  C   UNL     1       1.083  -1.060  -1.727  1.00  0.00    +0.070 A 
ATOM     21  N   UNL     1       1.778  -0.872  -0.553  1.00  0.00    -0.340 N 
ATOM     22  C   UNL     1       1.557  -0.127  -2.635  1.00  0.00    -0.022 A 
ATOM     23  C   UNL     1       2.637   0.196  -0.650  1.00  0.00    +0.106 A 
ATOM     24  C   UNL     1       2.513   0.669  -1.942  1.00  0.00    +0.050 A 
ATOM     25  H   UNL     1       1.631  -1.416   0.282  1.00  0.00    +0.168 HD
ATOM     26  C   UNL     1       1.137   0.035  -4.052  1.00  0.00    +0.047 C 
BRANCH  23  27
ATOM     27  N   UNL     1       3.381   0.633   0.413  1.00  0.00    -0.354 N 
ATOM     28  C   UNL     1       4.438   1.643   0.144  1.00  0.00    +0.146 C 
ATOM     29  C   UNL     1       3.772  -0.309   1.490  1.00  0.00    +0.146 C 
ATOM     30  C   UNL     1       4.901   2.313   1.446  1.00  0.00    +0.181 C 
ATOM     31  C   UNL     1       4.263   0.456   2.731  1.00  0.00    +0.181 C 
ATOM     32  O   UNL     1       5.342   1.347   2.413  1.00  0.00    -0.378 OA
ENDBRANCH  23  27
ENDBRANCH  11  20
TORSDOF 3
