REMARK SMILES O=[N+]([O-])c1cc(N2CCOCC2)ccc1O
REMARK SMILES IDX 4 1 5 2 6 3 13 4 14 5 15 6 2 7 1 8 3 9 16 10 7 12 8 13 12 14
REMARK SMILES IDX 9 15 11 16 10 17
REMARK H PARENT 16 11
ROOT
ATOM      1  C   UNL     1      -2.549   0.861   0.024  1.00  0.00    +0.312 A 
ATOM      2  C   UNL     1      -1.146   0.926  -0.037  1.00  0.00    +0.115 A 
ATOM      3  C   UNL     1      -0.355  -0.234   0.037  1.00  0.00    +0.044 A 
ATOM      4  C   UNL     1      -1.027  -1.460   0.152  1.00  0.00    +0.030 A 
ATOM      5  C   UNL     1      -2.425  -1.530   0.214  1.00  0.00    +0.056 A 
ATOM      6  C   UNL     1      -3.192  -0.373   0.152  1.00  0.00    +0.194 A 
ENDROOT
BRANCH   1   7
ATOM      7  N   UNL     1      -3.315   2.106  -0.051  1.00  0.00    +0.066 N 
ATOM      8  O   UNL     1      -2.692   3.177  -0.075  1.00  0.00    -0.258 OA
ATOM      9  O   UNL     1      -4.553   2.015  -0.078  1.00  0.00    -0.258 OA
ENDBRANCH   1   7
BRANCH   6  10
ATOM     10  O   UNL     1      -4.544  -0.562   0.221  1.00  0.00    -0.502 OA
ATOM     11  H   UNL     1      -5.006   0.298   0.126  1.00  0.00    +0.293 HD
ENDBRANCH   6  10
BRANCH   3  12
ATOM     12  N   UNL     1       1.040  -0.120  -0.046  1.00  0.00    -0.367 N 
ATOM     13  C   UNL     1       1.829  -1.344  -0.313  1.00  0.00    +0.145 C 
ATOM     14  C   UNL     1       1.651   0.699   1.033  1.00  0.00    +0.145 C 
ATOM     15  C   UNL     1       3.294  -0.973  -0.594  1.00  0.00    +0.181 C 
ATOM     16  C   UNL     1       3.129   0.977   0.713  1.00  0.00    +0.181 C 
ATOM     17  O   UNL     1       3.864  -0.239   0.502  1.00  0.00    -0.378 OA
ENDBRANCH   3  12
TORSDOF 3
