MODEL 1
REMARK VINA RESULT:    -8.047      0.000      0.000
REMARK INTER + INTRA:         -10.274
REMARK INTER:                  -9.694
REMARK INTRA:                  -0.581
REMARK UNBOUND:                -0.581
REMARK SMILES CN1CCN(c2ccc3c(ccn3C=C(N)C(C#N)=C(C#N)C#N)c2)CC1
REMARK SMILES IDX 6 1 7 2 8 3 9 4 10 5 11 6 12 7 13 8 25 9 5 10 2 11 3 12
REMARK SMILES IDX 27 13 4 14 26 15 1 16 14 17 15 18 16 19 17 22 18 23 20 24
REMARK SMILES IDX 19 25 21 26 23 27 22 28 24 29
REMARK H PARENT 16 20 16 21
ROOT
ATOM      1  C   UNL     1      23.635   0.625  52.988  1.00  0.00    +0.037 A 
ATOM      2  C   UNL     1      23.262   1.002  51.692  1.00  0.00    +0.028 A 
ATOM      3  C   UNL     1      21.960   0.840  51.189  1.00  0.00    +0.029 A 
ATOM      4  C   UNL     1      20.984   0.266  52.020  1.00  0.00    +0.052 A 
ATOM      5  C   UNL     1      21.308  -0.124  53.319  1.00  0.00    +0.002 A 
ATOM      6  C   UNL     1      20.139  -0.663  53.898  1.00  0.00    +0.028 A 
ATOM      7  C   UNL     1      19.140  -0.593  52.956  1.00  0.00    +0.092 A 
ATOM      8  N   UNL     1      19.624  -0.006  51.801  1.00  0.00    -0.321 N 
ATOM      9  C   UNL     1      22.630   0.056  53.789  1.00  0.00    +0.036 A 
ENDROOT
BRANCH   1  10
ATOM     10  N   UNL     1      24.928   0.792  53.457  1.00  0.00    -0.369 N 
ATOM     11  N   UNL     1      27.675   1.194  54.597  1.00  0.00    -0.303 NA
ATOM     12  C   UNL     1      26.689   0.233  55.136  1.00  0.00    +0.105 C 
ATOM     13  C   UNL     1      27.139   1.910  53.419  1.00  0.00    +0.105 C 
ATOM     14  C   UNL     1      25.649  -0.306  54.124  1.00  0.00    +0.132 C 
ATOM     15  C   UNL     1      25.604   2.098  53.436  1.00  0.00    +0.132 C 
ATOM     16  C   UNL     1      28.942   0.545  54.271  1.00  0.00    +0.105 C 
ENDBRANCH   1  10
BRANCH   8  17
ATOM     17  C   UNL     1      18.940   0.268  50.601  1.00  0.00    +0.118 C 
ATOM     18  C   UNL     1      18.033   1.211  50.267  1.00  0.00    +0.068 C 
BRANCH  18  19
ATOM     19  N   UNL     1      17.508   1.252  48.983  1.00  0.00    -0.396 N 
ATOM     20  H   UNL     1      17.854   2.015  48.401  1.00  0.00    +0.156 HD
ATOM     21  H   UNL     1      16.490   1.205  48.942  1.00  0.00    +0.156 HD
ENDBRANCH  18  19
BRANCH  18  22
ATOM     22  C   UNL     1      17.609   2.307  51.142  1.00  0.00    +0.105 C 
ATOM     23  C   UNL     1      18.651   3.166  51.615  1.00  0.00    +0.104 C 
ATOM     24  C   UNL     1      16.324   2.480  51.524  1.00  0.00    +0.149 C 
ATOM     25  N   UNL     1      19.499   3.854  52.003  1.00  0.00    -0.192 NA
ATOM     26  C   UNL     1      15.292   1.600  51.084  1.00  0.00    +0.112 C 
ATOM     27  C   UNL     1      15.943   3.546  52.388  1.00  0.00    +0.112 C 
ATOM     28  N   UNL     1      14.448   0.891  50.725  1.00  0.00    -0.192 NA
ATOM     29  N   UNL     1      15.646   4.424  53.086  1.00  0.00    -0.192 NA
ENDBRANCH  18  22
ENDBRANCH   8  17
TORSDOF 4
ENDMDL
MODEL 2
REMARK VINA RESULT:    -8.001      2.838      4.412
REMARK INTER + INTRA:         -10.219
REMARK INTER:                  -9.207
REMARK INTRA:                  -1.012
REMARK UNBOUND:                -0.581
REMARK SMILES CN1CCN(c2ccc3c(ccn3C=C(N)C(C#N)=C(C#N)C#N)c2)CC1
REMARK SMILES IDX 6 1 7 2 8 3 9 4 10 5 11 6 12 7 13 8 25 9 5 10 2 11 3 12
REMARK SMILES IDX 27 13 4 14 26 15 1 16 14 17 15 18 16 19 17 22 18 23 20 24
REMARK SMILES IDX 19 25 21 26 23 27 22 28 24 29
REMARK H PARENT 16 20 16 21
ROOT
ATOM      1  C   UNL     1      24.952   1.207  53.005  1.00  0.00    +0.037 A 
ATOM      2  C   UNL     1      23.782   0.545  52.613  1.00  0.00    +0.028 A 
ATOM      3  C   UNL     1      22.591   1.217  52.288  1.00  0.00    +0.029 A 
ATOM      4  C   UNL     1      22.567   2.619  52.365  1.00  0.00    +0.052 A 
ATOM      5  C   UNL     1      23.708   3.322  52.749  1.00  0.00    +0.002 A 
ATOM      6  C   UNL     1      23.378   4.694  52.738  1.00  0.00    +0.028 A 
ATOM      7  C   UNL     1      22.063   4.801  52.354  1.00  0.00    +0.092 A 
ATOM      8  N   UNL     1      21.545   3.544  52.096  1.00  0.00    -0.321 N 
ATOM      9  C   UNL     1      24.888   2.609  53.067  1.00  0.00    +0.036 A 
ENDROOT
BRANCH   1  10
ATOM     10  N   UNL     1      26.112   0.520  53.323  1.00  0.00    -0.369 N 
ATOM     11  N   UNL     1      28.547  -1.080  54.045  1.00  0.00    -0.303 NA
ATOM     12  C   UNL     1      27.612  -1.442  52.959  1.00  0.00    +0.105 C 
ATOM     13  C   UNL     1      28.138   0.176  54.710  1.00  0.00    +0.105 C 
ATOM     14  C   UNL     1      26.840  -0.267  52.312  1.00  0.00    +0.132 C 
ATOM     15  C   UNL     1      26.612   0.428  54.704  1.00  0.00    +0.132 C 
ATOM     16  C   UNL     1      29.924  -0.983  53.565  1.00  0.00    +0.105 C 
ENDBRANCH   1  10
BRANCH   8  17
ATOM     17  C   UNL     1      20.249   3.198  51.670  1.00  0.00    +0.118 C 
ATOM     18  C   UNL     1      19.709   3.033  50.443  1.00  0.00    +0.068 C 
BRANCH  18  19
ATOM     19  N   UNL     1      18.373   2.683  50.308  1.00  0.00    -0.396 N 
ATOM     20  H   UNL     1      17.727   3.470  50.243  1.00  0.00    +0.156 HD
ATOM     21  H   UNL     1      18.043   2.005  50.994  1.00  0.00    +0.156 HD
ENDBRANCH  18  19
BRANCH  18  22
ATOM     22  C   UNL     1      20.462   3.091  49.187  1.00  0.00    +0.105 C 
ATOM     23  C   UNL     1      21.062   1.863  48.763  1.00  0.00    +0.104 C 
ATOM     24  C   UNL     1      20.625   4.235  48.486  1.00  0.00    +0.149 C 
ATOM     25  N   UNL     1      21.555   0.869  48.427  1.00  0.00    -0.192 NA
ATOM     26  C   UNL     1      20.059   5.466  48.930  1.00  0.00    +0.112 C 
ATOM     27  C   UNL     1      21.374   4.265  47.276  1.00  0.00    +0.112 C 
ATOM     28  N   UNL     1      19.597   6.469  49.284  1.00  0.00    -0.192 NA
ATOM     29  N   UNL     1      21.982   4.273  46.288  1.00  0.00    -0.192 NA
ENDBRANCH  18  22
ENDBRANCH   8  17
TORSDOF 4
ENDMDL
MODEL 3
REMARK VINA RESULT:    -7.890      0.667      1.938
REMARK INTER + INTRA:         -10.086
REMARK INTER:                  -9.384
REMARK INTRA:                  -0.701
REMARK UNBOUND:                -0.581
REMARK SMILES CN1CCN(c2ccc3c(ccn3C=C(N)C(C#N)=C(C#N)C#N)c2)CC1
REMARK SMILES IDX 6 1 7 2 8 3 9 4 10 5 11 6 12 7 13 8 25 9 5 10 2 11 3 12
REMARK SMILES IDX 27 13 4 14 26 15 1 16 14 17 15 18 16 19 17 22 18 23 20 24
REMARK SMILES IDX 19 25 21 26 23 27 22 28 24 29
REMARK H PARENT 16 20 16 21
ROOT
ATOM      1  C   UNL     1      23.349   0.655  52.864  1.00  0.00    +0.037 A 
ATOM      2  C   UNL     1      23.067   1.123  51.575  1.00  0.00    +0.028 A 
ATOM      3  C   UNL     1      21.791   1.045  50.991  1.00  0.00    +0.029 A 
ATOM      4  C   UNL     1      20.748   0.464  51.729  1.00  0.00    +0.052 A 
ATOM      5  C   UNL     1      20.980  -0.014  53.018  1.00  0.00    +0.002 A 
ATOM      6  C   UNL     1      19.759  -0.537  53.497  1.00  0.00    +0.028 A 
ATOM      7  C   UNL     1      18.821  -0.371  52.507  1.00  0.00    +0.092 A 
ATOM      8  N   UNL     1      19.393   0.262  51.418  1.00  0.00    -0.321 N 
ATOM      9  C   UNL     1      22.278   0.083  53.571  1.00  0.00    +0.036 A 
ENDROOT
BRANCH   1  10
ATOM     10  N   UNL     1      24.618   0.741  53.414  1.00  0.00    -0.369 N 
ATOM     11  N   UNL     1      27.307   0.962  54.728  1.00  0.00    -0.303 NA
ATOM     12  C   UNL     1      26.252   0.021  55.158  1.00  0.00    +0.105 C 
ATOM     13  C   UNL     1      26.872   1.760  53.561  1.00  0.00    +0.105 C 
ATOM     14  C   UNL     1      25.252  -0.421  54.061  1.00  0.00    +0.132 C 
ATOM     15  C   UNL     1      25.348   2.015  53.501  1.00  0.00    +0.132 C 
ATOM     16  C   UNL     1      28.564   0.275  54.441  1.00  0.00    +0.105 C 
ENDBRANCH   1  10
BRANCH   8  17
ATOM     17  C   UNL     1      18.791   0.634  50.201  1.00  0.00    +0.118 C 
ATOM     18  C   UNL     1      17.687   1.358  49.917  1.00  0.00    +0.068 C 
BRANCH  18  19
ATOM     19  N   UNL     1      17.314   1.575  48.597  1.00  0.00    -0.396 N 
ATOM     20  H   UNL     1      17.204   0.729  48.037  1.00  0.00    +0.156 HD
ATOM     21  H   UNL     1      17.887   2.258  48.104  1.00  0.00    +0.156 HD
ENDBRANCH  18  19
BRANCH  18  22
ATOM     22  C   UNL     1      16.867   2.053  50.912  1.00  0.00    +0.105 C 
ATOM     23  C   UNL     1      15.713   1.345  51.373  1.00  0.00    +0.104 C 
ATOM     24  C   UNL     1      17.147   3.304  51.343  1.00  0.00    +0.149 C 
ATOM     25  N   UNL     1      14.774   0.772  51.738  1.00  0.00    -0.192 NA
ATOM     26  C   UNL     1      18.275   4.024  50.853  1.00  0.00    +0.112 C 
ATOM     27  C   UNL     1      16.323   3.961  52.300  1.00  0.00    +0.112 C 
ATOM     28  N   UNL     1      19.195   4.613  50.461  1.00  0.00    -0.192 NA
ATOM     29  N   UNL     1      15.647   4.482  53.086  1.00  0.00    -0.192 NA
ENDBRANCH  18  22
ENDBRANCH   8  17
TORSDOF 4
ENDMDL
MODEL 4
REMARK VINA RESULT:    -7.738      1.744      2.889
REMARK INTER + INTRA:          -9.902
REMARK INTER:                  -9.025
REMARK INTRA:                  -0.877
REMARK UNBOUND:                -0.581
REMARK SMILES CN1CCN(c2ccc3c(ccn3C=C(N)C(C#N)=C(C#N)C#N)c2)CC1
REMARK SMILES IDX 6 1 7 2 8 3 9 4 10 5 11 6 12 7 13 8 25 9 5 10 2 11 3 12
REMARK SMILES IDX 27 13 4 14 26 15 1 16 14 17 15 18 16 19 17 22 18 23 20 24
REMARK SMILES IDX 19 25 21 26 23 27 22 28 24 29
REMARK H PARENT 16 20 16 21
ROOT
ATOM      1  C   UNL     1      23.914   0.806  52.787  1.00  0.00    +0.037 A 
ATOM      2  C   UNL     1      23.656   1.256  51.487  1.00  0.00    +0.028 A 
ATOM      3  C   UNL     1      22.384   1.199  50.892  1.00  0.00    +0.029 A 
ATOM      4  C   UNL     1      21.319   0.660  51.631  1.00  0.00    +0.052 A 
ATOM      5  C   UNL     1      21.527   0.201  52.932  1.00  0.00    +0.002 A 
ATOM      6  C   UNL     1      20.289  -0.281  53.409  1.00  0.00    +0.028 A 
ATOM      7  C   UNL     1      19.364  -0.110  52.406  1.00  0.00    +0.092 A 
ATOM      8  N   UNL     1      19.962   0.487  51.311  1.00  0.00    -0.321 N 
ATOM      9  C   UNL     1      22.822   0.276  53.495  1.00  0.00    +0.036 A 
ENDROOT
BRANCH   1  10
ATOM     10  N   UNL     1      25.179   0.870  53.348  1.00  0.00    -0.369 N 
ATOM     11  N   UNL     1      27.861   1.037  54.686  1.00  0.00    -0.303 NA
ATOM     12  C   UNL     1      26.808   0.071  55.063  1.00  0.00    +0.105 C 
ATOM     13  C   UNL     1      27.428   1.890  53.558  1.00  0.00    +0.105 C 
ATOM     14  C   UNL     1      25.816  -0.319  53.941  1.00  0.00    +0.132 C 
ATOM     15  C   UNL     1      25.904   2.142  53.501  1.00  0.00    +0.132 C 
ATOM     16  C   UNL     1      29.122   0.370  54.372  1.00  0.00    +0.105 C 
ENDBRANCH   1  10
BRANCH   8  17
ATOM     17  C   UNL     1      19.382   0.851  50.081  1.00  0.00    +0.118 C 
ATOM     18  C   UNL     1      19.067   2.049  49.543  1.00  0.00    +0.068 C 
BRANCH  18  19
ATOM     19  N   UNL     1      18.489   2.119  48.283  1.00  0.00    -0.396 N 
ATOM     20  H   UNL     1      17.857   1.351  48.057  1.00  0.00    +0.156 HD
ATOM     21  H   UNL     1      19.151   2.273  47.523  1.00  0.00    +0.156 HD
ENDBRANCH  18  19
BRANCH  18  22
ATOM     22  C   UNL     1      19.388   3.344  50.148  1.00  0.00    +0.105 C 
ATOM     23  C   UNL     1      18.493   3.793  51.171  1.00  0.00    +0.104 C 
ATOM     24  C   UNL     1      20.434   4.099  49.744  1.00  0.00    +0.149 C 
ATOM     25  N   UNL     1      17.761   4.157  51.992  1.00  0.00    -0.192 NA
ATOM     26  C   UNL     1      21.301   3.669  48.698  1.00  0.00    +0.112 C 
ATOM     27  C   UNL     1      20.712   5.362  50.341  1.00  0.00    +0.112 C 
ATOM     28  N   UNL     1      22.014   3.322  47.851  1.00  0.00    -0.192 NA
ATOM     29  N   UNL     1      20.932   6.385  50.841  1.00  0.00    -0.192 NA
ENDBRANCH  18  22
ENDBRANCH   8  17
TORSDOF 4
ENDMDL
MODEL 5
REMARK VINA RESULT:    -7.670      3.128      4.968
REMARK INTER + INTRA:          -9.820
REMARK INTER:                  -8.811
REMARK INTRA:                  -1.009
REMARK UNBOUND:                -0.581
REMARK SMILES CN1CCN(c2ccc3c(ccn3C=C(N)C(C#N)=C(C#N)C#N)c2)CC1
REMARK SMILES IDX 6 1 7 2 8 3 9 4 10 5 11 6 12 7 13 8 25 9 5 10 2 11 3 12
REMARK SMILES IDX 27 13 4 14 26 15 1 16 14 17 15 18 16 19 17 22 18 23 20 24
REMARK SMILES IDX 19 25 21 26 23 27 22 28 24 29
REMARK H PARENT 16 20 16 21
ROOT
ATOM      1  C   UNL     1      24.927   1.313  52.829  1.00  0.00    +0.037 A 
ATOM      2  C   UNL     1      25.028   2.687  52.579  1.00  0.00    +0.028 A 
ATOM      3  C   UNL     1      23.927   3.485  52.221  1.00  0.00    +0.029 A 
ATOM      4  C   UNL     1      22.667   2.878  52.101  1.00  0.00    +0.052 A 
ATOM      5  C   UNL     1      22.517   1.513  52.342  1.00  0.00    +0.002 A 
ATOM      6  C   UNL     1      21.156   1.198  52.141  1.00  0.00    +0.028 A 
ATOM      7  C   UNL     1      20.511   2.359  51.786  1.00  0.00    +0.092 A 
ATOM      8  N   UNL     1      21.409   3.412  51.776  1.00  0.00    -0.321 N 
ATOM      9  C   UNL     1      23.649   0.744  52.700  1.00  0.00    +0.036 A 
ENDROOT
BRANCH   1  10
ATOM     10  N   UNL     1      26.030   0.548  53.176  1.00  0.00    -0.369 N 
ATOM     11  N   UNL     1      28.331  -1.215  53.954  1.00  0.00    -0.303 NA
ATOM     12  C   UNL     1      27.410  -1.503  52.834  1.00  0.00    +0.105 C 
ATOM     13  C   UNL     1      27.982   0.058  54.622  1.00  0.00    +0.105 C 
ATOM     14  C   UNL     1      26.738  -0.273  52.178  1.00  0.00    +0.132 C 
ATOM     15  C   UNL     1      26.477   0.409  54.571  1.00  0.00    +0.132 C 
ATOM     16  C   UNL     1      29.726  -1.202  53.520  1.00  0.00    +0.105 C 
ENDBRANCH   1  10
BRANCH   8  17
ATOM     17  C   UNL     1      21.171   4.767  51.481  1.00  0.00    +0.118 C 
ATOM     18  C   UNL     1      21.023   5.432  50.315  1.00  0.00    +0.068 C 
BRANCH  18  19
ATOM     19  N   UNL     1      20.793   6.801  50.314  1.00  0.00    -0.396 N 
ATOM     20  H   UNL     1      21.510   7.357  49.848  1.00  0.00    +0.156 HD
ATOM     21  H   UNL     1      20.576   7.192  51.230  1.00  0.00    +0.156 HD
ENDBRANCH  18  19
BRANCH  18  22
ATOM     22  C   UNL     1      20.980   4.798  48.994  1.00  0.00    +0.105 C 
ATOM     23  C   UNL     1      19.694   4.339  48.566  1.00  0.00    +0.104 C 
ATOM     24  C   UNL     1      22.084   4.611  48.238  1.00  0.00    +0.149 C 
ATOM     25  N   UNL     1      18.653   3.960  48.226  1.00  0.00    -0.192 NA
ATOM     26  C   UNL     1      23.371   5.033  48.683  1.00  0.00    +0.112 C 
ATOM     27  C   UNL     1      22.014   3.978  46.964  1.00  0.00    +0.112 C 
ATOM     28  N   UNL     1      24.419   5.380  49.038  1.00  0.00    -0.192 NA
ATOM     29  N   UNL     1      21.940   3.468  45.925  1.00  0.00    -0.192 NA
ENDBRANCH  18  22
ENDBRANCH   8  17
TORSDOF 4
ENDMDL
MODEL 6
REMARK VINA RESULT:    -7.457      4.242      6.147
REMARK INTER + INTRA:          -9.563
REMARK INTER:                  -8.672
REMARK INTRA:                  -0.891
REMARK UNBOUND:                -0.581
REMARK SMILES CN1CCN(c2ccc3c(ccn3C=C(N)C(C#N)=C(C#N)C#N)c2)CC1
REMARK SMILES IDX 6 1 7 2 8 3 9 4 10 5 11 6 12 7 13 8 25 9 5 10 2 11 3 12
REMARK SMILES IDX 27 13 4 14 26 15 1 16 14 17 15 18 16 19 17 22 18 23 20 24
REMARK SMILES IDX 19 25 21 26 23 27 22 28 24 29
REMARK H PARENT 16 20 16 21
ROOT
ATOM      1  C   UNL     1      26.047   2.088  51.870  1.00  0.00    +0.037 A 
ATOM      2  C   UNL     1      24.714   2.298  52.242  1.00  0.00    +0.028 A 
ATOM      3  C   UNL     1      23.887   3.255  51.628  1.00  0.00    +0.029 A 
ATOM      4  C   UNL     1      24.420   4.044  50.597  1.00  0.00    +0.052 A 
ATOM      5  C   UNL     1      25.743   3.870  50.191  1.00  0.00    +0.002 A 
ATOM      6  C   UNL     1      25.988   4.796  49.155  1.00  0.00    +0.028 A 
ATOM      7  C   UNL     1      24.829   5.507  48.952  1.00  0.00    +0.092 A 
ATOM      8  N   UNL     1      23.842   5.052  49.808  1.00  0.00    -0.321 N 
ATOM      9  C   UNL     1      26.543   2.896  50.833  1.00  0.00    +0.036 A 
ENDROOT
BRANCH   1  10
ATOM     10  N   UNL     1      26.842   1.140  52.494  1.00  0.00    -0.369 N 
ATOM     11  N   UNL     1      28.458  -0.942  53.930  1.00  0.00    -0.303 NA
ATOM     12  C   UNL     1      27.209  -1.228  53.193  1.00  0.00    +0.105 C 
ATOM     13  C   UNL     1      28.813   0.492  53.849  1.00  0.00    +0.105 C 
ATOM     14  C   UNL     1      26.872  -0.259  52.034  1.00  0.00    +0.132 C 
ATOM     15  C   UNL     1      27.598   1.439  53.720  1.00  0.00    +0.132 C 
ATOM     16  C   UNL     1      29.565  -1.773  53.464  1.00  0.00    +0.105 C 
ENDBRANCH   1  10
BRANCH   8  17
ATOM     17  C   UNL     1      22.510   5.491  49.926  1.00  0.00    +0.118 C 
ATOM     18  C   UNL     1      21.432   5.349  49.126  1.00  0.00    +0.068 C 
BRANCH  18  19
ATOM     19  N   UNL     1      20.210   5.896  49.494  1.00  0.00    -0.396 N 
ATOM     20  H   UNL     1      19.716   6.386  48.747  1.00  0.00    +0.156 HD
ATOM     21  H   UNL     1      20.242   6.470  50.336  1.00  0.00    +0.156 HD
ENDBRANCH  18  19
BRANCH  18  22
ATOM     22  C   UNL     1      21.404   4.547  47.899  1.00  0.00    +0.105 C 
ATOM     23  C   UNL     1      21.059   3.169  48.063  1.00  0.00    +0.104 C 
ATOM     24  C   UNL     1      21.726   5.055  46.688  1.00  0.00    +0.149 C 
ATOM     25  N   UNL     1      20.788   2.050  48.202  1.00  0.00    -0.192 NA
ATOM     26  C   UNL     1      22.108   6.419  46.532  1.00  0.00    +0.112 C 
ATOM     27  C   UNL     1      21.705   4.248  45.515  1.00  0.00    +0.112 C 
ATOM     28  N   UNL     1      22.415   7.530  46.398  1.00  0.00    -0.192 NA
ATOM     29  N   UNL     1      21.676   3.581  44.567  1.00  0.00    -0.192 NA
ENDBRANCH  18  22
ENDBRANCH   8  17
TORSDOF 4
ENDMDL
MODEL 7
REMARK VINA RESULT:    -7.348      1.568      2.547
REMARK INTER + INTRA:          -9.432
REMARK INTER:                  -9.128
REMARK INTRA:                  -0.304
REMARK UNBOUND:                -0.581
REMARK SMILES CN1CCN(c2ccc3c(ccn3C=C(N)C(C#N)=C(C#N)C#N)c2)CC1
REMARK SMILES IDX 6 1 7 2 8 3 9 4 10 5 11 6 12 7 13 8 25 9 5 10 2 11 3 12
REMARK SMILES IDX 27 13 4 14 26 15 1 16 14 17 15 18 16 19 17 22 18 23 20 24
REMARK SMILES IDX 19 25 21 26 23 27 22 28 24 29
REMARK H PARENT 16 20 16 21
ROOT
ATOM      1  C   UNL     1      23.774  -0.091  53.128  1.00  0.00    +0.037 A 
ATOM      2  C   UNL     1      22.730  -0.667  53.861  1.00  0.00    +0.028 A 
ATOM      3  C   UNL     1      21.386  -0.615  53.454  1.00  0.00    +0.029 A 
ATOM      4  C   UNL     1      21.069   0.051  52.259  1.00  0.00    +0.052 A 
ATOM      5  C   UNL     1      22.076   0.639  51.494  1.00  0.00    +0.002 A 
ATOM      6  C   UNL     1      21.458   1.228  50.370  1.00  0.00    +0.028 A 
ATOM      7  C   UNL     1      20.108   0.992  50.469  1.00  0.00    +0.092 A 
ATOM      8  N   UNL     1      19.842   0.252  51.607  1.00  0.00    -0.321 N 
ATOM      9  C   UNL     1      23.417   0.565  51.937  1.00  0.00    +0.036 A 
ENDROOT
BRANCH   1  10
ATOM     10  N   UNL     1      25.091  -0.153  53.554  1.00  0.00    -0.369 N 
ATOM     11  N   UNL     1      27.940  -0.425  54.460  1.00  0.00    -0.303 NA
ATOM     12  C   UNL     1      27.457  -0.821  53.120  1.00  0.00    +0.105 C 
ATOM     13  C   UNL     1      26.845   0.137  55.281  1.00  0.00    +0.105 C 
ATOM     14  C   UNL     1      26.211  -0.064  52.600  1.00  0.00    +0.132 C 
ATOM     15  C   UNL     1      25.448  -0.437  54.953  1.00  0.00    +0.132 C 
ATOM     16  C   UNL     1      29.056   0.515  54.378  1.00  0.00    +0.105 C 
ENDBRANCH   1  10
BRANCH   8  17
ATOM     17  C   UNL     1      18.602  -0.216  52.082  1.00  0.00    +0.118 C 
ATOM     18  C   UNL     1      17.336   0.220  51.902  1.00  0.00    +0.068 C 
BRANCH  18  19
ATOM     19  N   UNL     1      16.275  -0.444  52.502  1.00  0.00    -0.396 N 
ATOM     20  H   UNL     1      16.512  -0.945  53.359  1.00  0.00    +0.156 HD
ATOM     21  H   UNL     1      15.744  -1.045  51.873  1.00  0.00    +0.156 HD
ENDBRANCH  18  19
BRANCH  18  22
ATOM     22  C   UNL     1      16.952   1.316  51.009  1.00  0.00    +0.105 C 
ATOM     23  C   UNL     1      17.103   2.636  51.541  1.00  0.00    +0.104 C 
ATOM     24  C   UNL     1      16.441   1.108  49.775  1.00  0.00    +0.149 C 
ATOM     25  N   UNL     1      17.219   3.703  51.979  1.00  0.00    -0.192 NA
ATOM     26  C   UNL     1      16.254  -0.209  49.261  1.00  0.00    +0.112 C 
ATOM     27  C   UNL     1      16.062   2.193  48.935  1.00  0.00    +0.112 C 
ATOM     28  N   UNL     1      16.104  -1.277  48.835  1.00  0.00    -0.192 NA
ATOM     29  N   UNL     1      15.764   3.087  48.258  1.00  0.00    -0.192 NA
ENDBRANCH  18  22
ENDBRANCH   8  17
TORSDOF 4
ENDMDL
MODEL 8
REMARK VINA RESULT:    -7.300      2.501      8.876
REMARK INTER + INTRA:          -9.374
REMARK INTER:                  -8.793
REMARK INTRA:                  -0.581
REMARK UNBOUND:                -0.581
REMARK SMILES CN1CCN(c2ccc3c(ccn3C=C(N)C(C#N)=C(C#N)C#N)c2)CC1
REMARK SMILES IDX 6 1 7 2 8 3 9 4 10 5 11 6 12 7 13 8 25 9 5 10 2 11 3 12
REMARK SMILES IDX 27 13 4 14 26 15 1 16 14 17 15 18 16 19 17 22 18 23 20 24
REMARK SMILES IDX 19 25 21 26 23 27 22 28 24 29
REMARK H PARENT 16 20 16 21
ROOT
ATOM      1  C   UNL     1      18.547   0.229  51.429  1.00  0.00    +0.037 A 
ATOM      2  C   UNL     1      19.121   0.788  52.577  1.00  0.00    +0.028 A 
ATOM      3  C   UNL     1      20.370   1.433  52.574  1.00  0.00    +0.029 A 
ATOM      4  C   UNL     1      21.082   1.516  51.367  1.00  0.00    +0.052 A 
ATOM      5  C   UNL     1      20.550   0.976  50.198  1.00  0.00    +0.002 A 
ATOM      6  C   UNL     1      21.484   1.208  49.165  1.00  0.00    +0.028 A 
ATOM      7  C   UNL     1      22.552   1.874  49.716  1.00  0.00    +0.092 A 
ATOM      8  N   UNL     1      22.324   2.098  51.062  1.00  0.00    -0.321 N 
ATOM      9  C   UNL     1      19.289   0.335  50.241  1.00  0.00    +0.036 A 
ENDROOT
BRANCH   1  10
ATOM     10  N   UNL     1      17.315  -0.405  51.460  1.00  0.00    -0.369 N 
ATOM     11  N   UNL     1      14.591  -1.660  51.575  1.00  0.00    -0.303 NA
ATOM     12  C   UNL     1      14.923  -0.479  50.751  1.00  0.00    +0.105 C 
ATOM     13  C   UNL     1      15.775  -2.150  52.313  1.00  0.00    +0.105 C 
ATOM     14  C   UNL     1      16.400  -0.359  50.305  1.00  0.00    +0.132 C 
ATOM     15  C   UNL     1      16.795  -1.046  52.678  1.00  0.00    +0.132 C 
ATOM     16  C   UNL     1      14.005  -2.733  50.774  1.00  0.00    +0.105 C 
ENDBRANCH   1  10
BRANCH   8  17
ATOM     17  C   UNL     1      23.148   2.753  51.997  1.00  0.00    +0.118 C 
ATOM     18  C   UNL     1      24.128   2.308  52.813  1.00  0.00    +0.068 C 
BRANCH  18  19
ATOM     19  N   UNL     1      24.792   3.191  53.654  1.00  0.00    -0.396 N 
ATOM     20  H   UNL     1      25.093   2.793  54.544  1.00  0.00    +0.156 HD
ATOM     21  H   UNL     1      24.308   4.076  53.803  1.00  0.00    +0.156 HD
ENDBRANCH  18  19
BRANCH  18  22
ATOM     22  C   UNL     1      24.650   0.939  52.820  1.00  0.00    +0.105 C 
ATOM     23  C   UNL     1      23.729  -0.077  53.229  1.00  0.00    +0.104 C 
ATOM     24  C   UNL     1      25.932   0.645  52.506  1.00  0.00    +0.149 C 
ATOM     25  N   UNL     1      22.983  -0.895  53.569  1.00  0.00    -0.192 NA
ATOM     26  C   UNL     1      26.859   1.663  52.137  1.00  0.00    +0.112 C 
ATOM     27  C   UNL     1      26.415  -0.694  52.536  1.00  0.00    +0.112 C 
ATOM     28  N   UNL     1      27.616   2.486  51.830  1.00  0.00    -0.192 NA
ATOM     29  N   UNL     1      26.793  -1.790  52.557  1.00  0.00    -0.192 NA
ENDBRANCH  18  22
ENDBRANCH   8  17
TORSDOF 4
ENDMDL
MODEL 9
REMARK VINA RESULT:    -7.236      2.978      4.181
REMARK INTER + INTRA:          -9.297
REMARK INTER:                  -8.365
REMARK INTRA:                  -0.932
REMARK UNBOUND:                -0.581
REMARK SMILES CN1CCN(c2ccc3c(ccn3C=C(N)C(C#N)=C(C#N)C#N)c2)CC1
REMARK SMILES IDX 6 1 7 2 8 3 9 4 10 5 11 6 12 7 13 8 25 9 5 10 2 11 3 12
REMARK SMILES IDX 27 13 4 14 26 15 1 16 14 17 15 18 16 19 17 22 18 23 20 24
REMARK SMILES IDX 19 25 21 26 23 27 22 28 24 29
REMARK H PARENT 16 20 16 21
ROOT
ATOM      1  C   UNL     1      24.388   1.809  52.789  1.00  0.00    +0.037 A 
ATOM      2  C   UNL     1      24.027   3.151  52.621  1.00  0.00    +0.028 A 
ATOM      3  C   UNL     1      22.817   3.553  52.031  1.00  0.00    +0.029 A 
ATOM      4  C   UNL     1      21.926   2.565  51.581  1.00  0.00    +0.052 A 
ATOM      5  C   UNL     1      22.241   1.215  51.729  1.00  0.00    +0.002 A 
ATOM      6  C   UNL     1      21.170   0.473  51.186  1.00  0.00    +0.028 A 
ATOM      7  C   UNL     1      20.237   1.371  50.724  1.00  0.00    +0.092 A 
ATOM      8  N   UNL     1      20.664   2.663  50.974  1.00  0.00    -0.321 N 
ATOM      9  C   UNL     1      23.469   0.850  52.329  1.00  0.00    +0.036 A 
ENDROOT
BRANCH   1  10
ATOM     10  N   UNL     1      25.590   1.439  53.371  1.00  0.00    -0.369 N 
ATOM     11  N   UNL     1      28.146   0.686  54.753  1.00  0.00    -0.303 NA
ATOM     12  C   UNL     1      26.822   0.127  55.100  1.00  0.00    +0.105 C 
ATOM     13  C   UNL     1      28.046   1.643  53.630  1.00  0.00    +0.105 C 
ATOM     14  C   UNL     1      25.778   0.101  53.957  1.00  0.00    +0.132 C 
ATOM     15  C   UNL     1      26.696   2.392  53.553  1.00  0.00    +0.132 C 
ATOM     16  C   UNL     1      29.115  -0.364  54.450  1.00  0.00    +0.105 C 
ENDBRANCH   1  10
BRANCH   8  17
ATOM     17  C   UNL     1      20.014   3.876  50.678  1.00  0.00    +0.118 C 
ATOM     18  C   UNL     1      20.133   4.744  49.650  1.00  0.00    +0.068 C 
BRANCH  18  19
ATOM     19  N   UNL     1      19.350   5.890  49.608  1.00  0.00    -0.396 N 
ATOM     20  H   UNL     1      18.503   5.853  50.175  1.00  0.00    +0.156 HD
ATOM     21  H   UNL     1      19.136   6.220  48.668  1.00  0.00    +0.156 HD
ENDBRANCH  18  19
BRANCH  18  22
ATOM     22  C   UNL     1      20.974   4.528  48.470  1.00  0.00    +0.105 C 
ATOM     23  C   UNL     1      22.315   5.018  48.563  1.00  0.00    +0.104 C 
ATOM     24  C   UNL     1      20.513   3.944  47.342  1.00  0.00    +0.149 C 
ATOM     25  N   UNL     1      23.398   5.425  48.639  1.00  0.00    -0.192 NA
ATOM     26  C   UNL     1      19.166   3.491  47.236  1.00  0.00    +0.112 C 
ATOM     27  C   UNL     1      21.350   3.761  46.205  1.00  0.00    +0.112 C 
ATOM     28  N   UNL     1      18.071   3.116  47.147  1.00  0.00    -0.192 NA
ATOM     29  N   UNL     1      22.046   3.611  45.288  1.00  0.00    -0.192 NA
ENDBRANCH  18  22
ENDBRANCH   8  17
TORSDOF 4
ENDMDL
