REMARK SMILES CCN(CC)CC/N=N/Nc1ccc2ncnc(-c3cccc(Cl)c3)c2c1
REMARK SMILES IDX 8 1 9 2 7 3 6 4 3 5 2 6 1 7 4 8 5 9 10 10 11 12 12 13 27 14
REMARK SMILES IDX 13 15 26 16 14 17 18 18 15 19 17 20 16 21 19 22 20 23 25 24
REMARK SMILES IDX 21 25 23 26 22 27 24 28
REMARK H PARENT 10 11
ROOT
ATOM      1  N   UNL     1      -1.623   0.694  -0.249  1.00  0.00    -0.170 NA
ATOM      2  N   UNL     1      -0.985  -0.354  -0.043  1.00  0.00    -0.075 NA
ENDROOT
BRANCH   1   3
ATOM      3  C   UNL     1      -3.041   0.430  -0.554  1.00  0.00    +0.184 C 
BRANCH   3   4
ATOM      4  C   UNL     1      -3.865   0.530   0.741  1.00  0.00    +0.110 C 
BRANCH   4   5
ATOM      5  N   UNL     1      -5.322   0.302   0.630  1.00  0.00    -0.302 NA
BRANCH   5   6
ATOM      6  C   UNL     1      -5.613  -1.099   0.279  1.00  0.00    +0.081 C 
ATOM      7  C   UNL     1      -7.045  -1.508   0.608  1.00  0.00    +0.021 C 
ENDBRANCH   5   6
BRANCH   5   8
ATOM      8  C   UNL     1      -6.009   1.249  -0.264  1.00  0.00    +0.081 C 
ATOM      9  C   UNL     1      -5.827   2.712   0.131  1.00  0.00    +0.021 C 
ENDBRANCH   5   8
ENDBRANCH   4   5
ENDBRANCH   3   4
ENDBRANCH   1   3
BRANCH   2  10
ATOM     10  N   UNL     1       0.272   0.034   0.237  1.00  0.00    -0.260 N 
ATOM     11  H   UNL     1       0.493   0.985  -0.038  1.00  0.00    +0.192 HD
BRANCH  10  12
ATOM     12  C   UNL     1       1.317  -0.897   0.117  1.00  0.00    +0.059 A 
ATOM     13  C   UNL     1       1.100  -2.273   0.062  1.00  0.00    +0.030 A 
ATOM     14  C   UNL     1       2.643  -0.453   0.172  1.00  0.00    +0.040 A 
ATOM     15  C   UNL     1       2.177  -3.167  -0.001  1.00  0.00    +0.031 A 
ATOM     16  C   UNL     1       3.740  -1.358   0.121  1.00  0.00    +0.029 A 
ATOM     17  C   UNL     1       3.494  -2.732   0.018  1.00  0.00    +0.074 A 
ATOM     18  C   UNL     1       5.101  -1.005   0.154  1.00  0.00    +0.082 A 
ATOM     19  N   UNL     1       4.470  -3.644  -0.058  1.00  0.00    -0.236 NA
ATOM     20  N   UNL     1       6.100  -1.910   0.061  1.00  0.00    -0.236 NA
ATOM     21  C   UNL     1       5.728  -3.188  -0.038  1.00  0.00    +0.223 A 
BRANCH  18  22
ATOM     22  C   UNL     1       5.577   0.380   0.292  1.00  0.00    +0.002 A 
ATOM     23  C   UNL     1       5.384   1.101   1.484  1.00  0.00    +0.010 A 
ATOM     24  C   UNL     1       6.263   1.004  -0.762  1.00  0.00    +0.030 A 
ATOM     25  C   UNL     1       5.841   2.415   1.611  1.00  0.00    +0.002 A 
ATOM     26  C   UNL     1       6.718   2.316  -0.632  1.00  0.00    +0.041 A 
ATOM     27  C   UNL     1       6.506   3.025   0.549  1.00  0.00    +0.020 A 
ATOM     28 Cl   UNL     1       7.545   3.068  -1.941  1.00  0.00    -0.084 Cl
ENDBRANCH  18  22
ENDBRANCH  10  12
ENDBRANCH   2  10
TORSDOF 8
