REMARK SMILES Cc1cccc(C=C2C(=O)N(C)c3ncnc(-c4cccc(Cl)c4)c32)c1
REMARK SMILES IDX 7 1 8 2 9 3 10 4 11 5 12 6 13 7 14 8 15 9 16 10 17 11 25 12
REMARK SMILES IDX 6 13 2 14 3 15 26 16 4 17 5 18 1 19 18 20 19 21 24 22 20 23
REMARK SMILES IDX 22 24 21 25 23 26
REMARK H PARENT
ROOT
ATOM      1  C   UNL     1       0.425   0.258  -0.271  1.00  0.00    +0.022 C 
ATOM      2  C   UNL     1      -0.272  -0.871  -0.072  1.00  0.00    +0.054 C 
ATOM      3  C   UNL     1       0.270  -2.282  -0.108  1.00  0.00    +0.260 C 
ATOM      4  O   UNL     1       1.403  -2.640  -0.359  1.00  0.00    -0.269 OA
ATOM      5  N   UNL     1      -0.816  -3.082   0.211  1.00  0.00    -0.295 N 
ATOM      6  C   UNL     1      -0.800  -4.515   0.305  1.00  0.00    +0.155 C 
ATOM      7  C   UNL     1      -1.974  -2.325   0.415  1.00  0.00    +0.147 A 
ATOM      8  N   UNL     1      -3.163  -2.851   0.728  1.00  0.00    -0.218 NA
ATOM      9  C   UNL     1      -4.134  -1.942   0.870  1.00  0.00    +0.224 A 
ATOM     10  N   UNL     1      -4.005  -0.611   0.717  1.00  0.00    -0.236 NA
ATOM     11  C   UNL     1      -2.777  -0.136   0.387  1.00  0.00    +0.084 A 
ATOM     12  C   UNL     1      -1.703  -0.979   0.238  1.00  0.00    +0.057 A 
ENDROOT
BRANCH   1  13
ATOM     13  C   UNL     1       1.859   0.365  -0.564  1.00  0.00    -0.025 A 
ATOM     14  C   UNL     1       4.191   0.138   0.098  1.00  0.00    -0.051 A 
ATOM     15  C   UNL     1       4.582   0.689  -1.128  1.00  0.00    +0.003 A 
ATOM     16  C   UNL     1       2.825  -0.003   0.379  1.00  0.00    +0.011 A 
ATOM     17  C   UNL     1       3.623   1.068  -2.068  1.00  0.00    +0.001 A 
ATOM     18  C   UNL     1       2.266   0.908  -1.787  1.00  0.00    +0.008 A 
ATOM     19  C   UNL     1       5.218  -0.247   1.121  1.00  0.00    +0.044 C 
ENDBRANCH   1  13
BRANCH  11  20
ATOM     20  C   UNL     1      -2.728   1.314   0.201  1.00  0.00    +0.002 A 
ATOM     21  C   UNL     1      -2.709   1.875  -1.087  1.00  0.00    +0.010 A 
ATOM     22  C   UNL     1      -2.719   2.175   1.310  1.00  0.00    +0.030 A 
ATOM     23  C   UNL     1      -2.660   3.260  -1.264  1.00  0.00    +0.002 A 
ATOM     24  C   UNL     1      -2.671   3.557   1.127  1.00  0.00    +0.041 A 
ATOM     25  C   UNL     1      -2.638   4.103  -0.154  1.00  0.00    +0.020 A 
ATOM     26 Cl   UNL     1      -2.651   4.597   2.498  1.00  0.00    -0.084 Cl
ENDBRANCH  11  20
TORSDOF 2
