REMARK SMILES O=[N+]([O-])c1cc(-c2ccc(F)c(Cl)c2)ccc1O
REMARK SMILES IDX 4 1 5 2 6 3 15 4 16 5 17 6 2 7 1 8 3 9 18 10 7 12 8 13 14 14
REMARK SMILES IDX 9 15 12 16 10 17 13 18 11 19
REMARK H PARENT 18 11
ROOT
ATOM      1  C   UNL     1       2.475  -0.470  -0.292  1.00  0.00    +0.311 A 
ATOM      2  C   UNL     1       1.098  -0.681  -0.448  1.00  0.00    +0.098 A 
ATOM      3  C   UNL     1       0.185   0.218   0.122  1.00  0.00    -0.011 A 
ATOM      4  C   UNL     1       0.697   1.317   0.839  1.00  0.00    +0.013 A 
ATOM      5  C   UNL     1       2.076   1.521   0.984  1.00  0.00    +0.054 A 
ATOM      6  C   UNL     1       2.973   0.624   0.412  1.00  0.00    +0.194 A 
ENDROOT
BRANCH   1   7
ATOM      7  N   UNL     1       3.382  -1.426  -0.889  1.00  0.00    +0.066 N 
ATOM      8  O   UNL     1       3.348  -1.532  -2.123  1.00  0.00    -0.258 OA
ATOM      9  O   UNL     1       4.074  -2.112  -0.124  1.00  0.00    -0.258 OA
ENDBRANCH   1   7
BRANCH   6  10
ATOM     10  O   UNL     1       4.315   0.835   0.526  1.00  0.00    -0.502 OA
ATOM     11  H   UNL     1       4.486   1.600   1.101  1.00  0.00    +0.293 HD
ENDBRANCH   6  10
BRANCH   3  12
ATOM     12  C   UNL     1      -1.266   0.019  -0.024  1.00  0.00    -0.016 A 
ATOM     13  C   UNL     1      -2.083   1.036  -0.552  1.00  0.00    +0.012 A 
ATOM     14  C   UNL     1      -1.872  -1.191   0.359  1.00  0.00    +0.032 A 
ATOM     15  C   UNL     1      -3.462   0.850  -0.692  1.00  0.00    +0.041 A 
ATOM     16  C   UNL     1      -3.250  -1.375   0.219  1.00  0.00    +0.077 A 
ATOM     17  C   UNL     1      -4.037  -0.354  -0.305  1.00  0.00    +0.141 A 
ATOM     18 Cl   UNL     1      -3.957  -2.868   0.704  1.00  0.00    -0.081 Cl
ATOM     19  F   UNL     1      -5.361  -0.511  -0.447  1.00  0.00    -0.205 F 
ENDBRANCH   3  12
TORSDOF 3
