MODEL 1
REMARK VINA RESULT:    -8.229      0.000      0.000
REMARK INTER + INTRA:         -11.165
REMARK INTER:                 -10.153
REMARK INTRA:                  -1.011
REMARK UNBOUND:                -1.011
REMARK SMILES Cc1cc(C)c(N(C(=O)c2ccc(F)c(Cl)c2)c2ccccn2)[nH]1
REMARK SMILES IDX 8 1 9 2 7 3 6 4 2 5 3 6 24 7 4 8 1 9 5 11 18 12 19 13 23 14
REMARK SMILES IDX 20 15 22 16 21 17 10 18 11 19 17 20 12 21 15 22 13 23 16 24
REMARK SMILES IDX 14 25
REMARK H PARENT 24 10
ROOT
ATOM      1  C   UNL     1      25.271   2.453  52.849  1.00  0.00    +0.265 C 
ATOM      2  O   UNL     1      24.891   2.940  53.918  1.00  0.00    -0.268 OA
ENDROOT
BRANCH   1   3
ATOM      3  N   UNL     1      24.750   2.764  51.577  1.00  0.00    -0.245 N 
BRANCH   3   4
ATOM      4  C   UNL     1      23.605   2.070  51.127  1.00  0.00    +0.122 A 
ATOM      5  C   UNL     1      22.039   1.503  49.580  1.00  0.00    +0.014 A 
ATOM      6  C   UNL     1      21.808   0.744  50.701  1.00  0.00    +0.028 A 
ATOM      7  N   UNL     1      23.081   2.338  49.875  1.00  0.00    -0.345 N 
ATOM      8  C   UNL     1      22.749   1.129  51.705  1.00  0.00    -0.008 A 
ATOM      9  C   UNL     1      21.345   1.554  48.272  1.00  0.00    +0.064 C 
ATOM     10  H   UNL     1      23.436   3.075  49.275  1.00  0.00    +0.168 HD
ATOM     11  C   UNL     1      22.700   0.613  53.103  1.00  0.00    +0.048 C 
ENDBRANCH   3   4
BRANCH   3  12
ATOM     12  C   UNL     1      25.390   3.689  50.703  1.00  0.00    +0.141 A 
ATOM     13  C   UNL     1      26.501   3.291  49.956  1.00  0.00    +0.048 A 
ATOM     14  N   UNL     1      24.843   4.919  50.543  1.00  0.00    -0.238 NA
ATOM     15  C   UNL     1      27.088   4.187  49.064  1.00  0.00    +0.005 A 
ATOM     16  C   UNL     1      25.434   5.773  49.678  1.00  0.00    +0.113 A 
ATOM     17  C   UNL     1      26.549   5.458  48.925  1.00  0.00    +0.020 A 
ENDBRANCH   3  12
ENDBRANCH   1   3
BRANCH   1  18
ATOM     18  C   UNL     1      26.432   1.542  52.964  1.00  0.00    +0.042 A 
ATOM     19  C   UNL     1      27.678   2.027  53.389  1.00  0.00    +0.017 A 
ATOM     20  C   UNL     1      26.244   0.179  52.705  1.00  0.00    +0.037 A 
ATOM     21  C   UNL     1      28.751   1.146  53.514  1.00  0.00    +0.041 A 
ATOM     22  C   UNL     1      27.324  -0.692  52.829  1.00  0.00    +0.077 A 
ATOM     23  C   UNL     1      28.571  -0.206  53.229  1.00  0.00    +0.141 A 
ATOM     24 Cl   UNL     1      27.106  -2.366  52.490  1.00  0.00    -0.081 Cl
ATOM     25  F   UNL     1      29.619  -1.032  53.353  1.00  0.00    -0.205 F 
ENDBRANCH   1  18
TORSDOF 4
ENDMDL
MODEL 2
REMARK VINA RESULT:    -7.967      1.486      2.477
REMARK INTER + INTRA:         -10.842
REMARK INTER:                 -10.126
REMARK INTRA:                  -0.716
REMARK UNBOUND:                -1.011
REMARK SMILES Cc1cc(C)c(N(C(=O)c2ccc(F)c(Cl)c2)c2ccccn2)[nH]1
REMARK SMILES IDX 8 1 9 2 7 3 6 4 2 5 3 6 24 7 4 8 1 9 5 11 18 12 19 13 23 14
REMARK SMILES IDX 20 15 22 16 21 17 10 18 11 19 17 20 12 21 15 22 13 23 16 24
REMARK SMILES IDX 14 25
REMARK H PARENT 24 10
ROOT
ATOM      1  C   UNL     1      25.770   1.766  53.374  1.00  0.00    +0.265 C 
ATOM      2  O   UNL     1      26.069   2.408  54.385  1.00  0.00    -0.268 OA
ENDROOT
BRANCH   1   3
ATOM      3  N   UNL     1      24.878   2.191  52.369  1.00  0.00    -0.245 N 
BRANCH   3   4
ATOM      4  C   UNL     1      23.578   1.641  52.340  1.00  0.00    +0.122 A 
ATOM      5  C   UNL     1      21.750   0.674  53.283  1.00  0.00    +0.014 A 
ATOM      6  C   UNL     1      21.458   0.911  51.961  1.00  0.00    +0.028 A 
ATOM      7  N   UNL     1      23.047   1.059  53.477  1.00  0.00    -0.345 N 
ATOM      8  C   UNL     1      22.619   1.467  51.340  1.00  0.00    -0.008 A 
ATOM      9  C   UNL     1      20.942   0.075  54.371  1.00  0.00    +0.064 C 
ATOM     10  H   UNL     1      23.578   0.936  54.333  1.00  0.00    +0.168 HD
ATOM     11  C   UNL     1      22.711   1.716  49.872  1.00  0.00    +0.048 C 
ENDBRANCH   3   4
BRANCH   3  12
ATOM     12  C   UNL     1      25.276   3.088  51.336  1.00  0.00    +0.141 A 
ATOM     13  C   UNL     1      26.266   2.714  50.426  1.00  0.00    +0.048 A 
ATOM     14  N   UNL     1      24.609   4.261  51.201  1.00  0.00    -0.238 NA
ATOM     15  C   UNL     1      26.611   3.578  49.388  1.00  0.00    +0.005 A 
ATOM     16  C   UNL     1      24.965   5.086  50.191  1.00  0.00    +0.113 A 
ATOM     17  C   UNL     1      25.952   4.793  49.269  1.00  0.00    +0.020 A 
ENDBRANCH   3  12
ENDBRANCH   1   3
BRANCH   1  18
ATOM     18  C   UNL     1      26.507   0.492  53.210  1.00  0.00    +0.042 A 
ATOM     19  C   UNL     1      25.863  -0.641  52.691  1.00  0.00    +0.017 A 
ATOM     20  C   UNL     1      27.871   0.462  53.520  1.00  0.00    +0.037 A 
ATOM     21  C   UNL     1      26.583  -1.822  52.522  1.00  0.00    +0.041 A 
ATOM     22  C   UNL     1      28.581  -0.725  53.350  1.00  0.00    +0.077 A 
ATOM     23  C   UNL     1      27.935  -1.860  52.856  1.00  0.00    +0.141 A 
ATOM     24 Cl   UNL     1      30.255  -0.776  53.751  1.00  0.00    -0.081 Cl
ATOM     25  F   UNL     1      28.605  -3.010  52.689  1.00  0.00    -0.205 F 
ENDBRANCH   1  18
TORSDOF 4
ENDMDL
MODEL 3
REMARK VINA RESULT:    -7.910      0.885      3.924
REMARK INTER + INTRA:         -10.771
REMARK INTER:                  -9.535
REMARK INTRA:                  -1.236
REMARK UNBOUND:                -1.011
REMARK SMILES Cc1cc(C)c(N(C(=O)c2ccc(F)c(Cl)c2)c2ccccn2)[nH]1
REMARK SMILES IDX 8 1 9 2 7 3 6 4 2 5 3 6 24 7 4 8 1 9 5 11 18 12 19 13 23 14
REMARK SMILES IDX 20 15 22 16 21 17 10 18 11 19 17 20 12 21 15 22 13 23 16 24
REMARK SMILES IDX 14 25
REMARK H PARENT 24 10
ROOT
ATOM      1  C   UNL     1      24.816   2.484  52.494  1.00  0.00    +0.265 C 
ATOM      2  O   UNL     1      24.299   2.905  53.534  1.00  0.00    -0.268 OA
ENDROOT
BRANCH   1   3
ATOM      3  N   UNL     1      24.426   2.836  51.187  1.00  0.00    -0.245 N 
BRANCH   3   4
ATOM      4  C   UNL     1      25.050   3.943  50.569  1.00  0.00    +0.122 A 
ATOM      5  C   UNL     1      26.642   4.933  49.284  1.00  0.00    +0.014 A 
ATOM      6  C   UNL     1      25.743   5.904  49.652  1.00  0.00    +0.028 A 
ATOM      7  N   UNL     1      26.246   3.776  49.895  1.00  0.00    -0.345 N 
ATOM      8  C   UNL     1      24.766   5.309  50.509  1.00  0.00    -0.008 A 
ATOM      9  C   UNL     1      27.866   4.997  48.451  1.00  0.00    +0.064 C 
ATOM     10  H   UNL     1      26.752   2.896  49.879  1.00  0.00    +0.168 HD
ATOM     11  C   UNL     1      23.718   6.101  51.214  1.00  0.00    +0.048 C 
ENDBRANCH   3   4
BRANCH   3  12
ATOM     12  C   UNL     1      23.367   2.168  50.508  1.00  0.00    +0.141 A 
ATOM     13  C   UNL     1      22.533   1.290  51.203  1.00  0.00    +0.048 A 
ATOM     14  N   UNL     1      23.131   2.476  49.208  1.00  0.00    -0.238 NA
ATOM     15  C   UNL     1      21.467   0.682  50.542  1.00  0.00    +0.005 A 
ATOM     16  C   UNL     1      22.096   1.868  48.586  1.00  0.00    +0.113 A 
ATOM     17  C   UNL     1      21.246   0.970  49.203  1.00  0.00    +0.020 A 
ENDBRANCH   3  12
ENDBRANCH   1   3
BRANCH   1  18
ATOM     18  C   UNL     1      25.995   1.612  52.699  1.00  0.00    +0.042 A 
ATOM     19  C   UNL     1      27.194   2.142  53.196  1.00  0.00    +0.017 A 
ATOM     20  C   UNL     1      25.866   0.240  52.451  1.00  0.00    +0.037 A 
ATOM     21  C   UNL     1      28.284   1.297  53.405  1.00  0.00    +0.041 A 
ATOM     22  C   UNL     1      26.961  -0.594  52.659  1.00  0.00    +0.077 A 
ATOM     23  C   UNL     1      28.163  -0.064  53.131  1.00  0.00    +0.141 A 
ATOM     24 Cl   UNL     1      26.817  -2.279  52.334  1.00  0.00    -0.081 Cl
ATOM     25  F   UNL     1      29.227  -0.854  53.336  1.00  0.00    -0.205 F 
ENDBRANCH   1  18
TORSDOF 4
ENDMDL
MODEL 4
REMARK VINA RESULT:    -7.883      1.423      4.056
REMARK INTER + INTRA:         -10.738
REMARK INTER:                 -10.176
REMARK INTRA:                  -0.562
REMARK UNBOUND:                -1.011
REMARK SMILES Cc1cc(C)c(N(C(=O)c2ccc(F)c(Cl)c2)c2ccccn2)[nH]1
REMARK SMILES IDX 8 1 9 2 7 3 6 4 2 5 3 6 24 7 4 8 1 9 5 11 18 12 19 13 23 14
REMARK SMILES IDX 20 15 22 16 21 17 10 18 11 19 17 20 12 21 15 22 13 23 16 24
REMARK SMILES IDX 14 25
REMARK H PARENT 24 10
ROOT
ATOM      1  C   UNL     1      24.846   2.046  53.185  1.00  0.00    +0.265 C 
ATOM      2  O   UNL     1      24.888   3.135  53.767  1.00  0.00    -0.268 OA
ENDROOT
BRANCH   1   3
ATOM      3  N   UNL     1      23.734   1.534  52.487  1.00  0.00    -0.245 N 
BRANCH   3   4
ATOM      4  C   UNL     1      23.531   1.935  51.148  1.00  0.00    +0.122 A 
ATOM      5  C   UNL     1      22.371   2.017  49.195  1.00  0.00    +0.014 A 
ATOM      6  C   UNL     1      23.473   2.827  49.058  1.00  0.00    +0.028 A 
ATOM      7  N   UNL     1      22.456   1.441  50.433  1.00  0.00    -0.345 N 
ATOM      8  C   UNL     1      24.244   2.742  50.258  1.00  0.00    -0.008 A 
ATOM      9  C   UNL     1      21.270   1.694  48.258  1.00  0.00    +0.064 C 
ATOM     10  H   UNL     1      21.829   0.732  50.799  1.00  0.00    +0.168 HD
ATOM     11  C   UNL     1      25.584   3.379  50.406  1.00  0.00    +0.048 C 
ENDBRANCH   3   4
BRANCH   3  12
ATOM     12  C   UNL     1      22.767   0.698  53.116  1.00  0.00    +0.141 A 
ATOM     13  C   UNL     1      23.164  -0.491  53.732  1.00  0.00    +0.048 A 
ATOM     14  N   UNL     1      21.482   1.126  53.184  1.00  0.00    -0.238 NA
ATOM     15  C   UNL     1      22.218  -1.275  54.390  1.00  0.00    +0.005 A 
ATOM     16  C   UNL     1      20.581   0.346  53.821  1.00  0.00    +0.113 A 
ATOM     17  C   UNL     1      20.897  -0.854  54.431  1.00  0.00    +0.020 A 
ENDBRANCH   3  12
ENDBRANCH   1   3
BRANCH   1  18
ATOM     18  C   UNL     1      26.126   1.302  53.175  1.00  0.00    +0.042 A 
ATOM     19  C   UNL     1      27.323   1.940  53.528  1.00  0.00    +0.017 A 
ATOM     20  C   UNL     1      26.104  -0.065  52.872  1.00  0.00    +0.037 A 
ATOM     21  C   UNL     1      28.513   1.213  53.536  1.00  0.00    +0.041 A 
ATOM     22  C   UNL     1      27.298  -0.782  52.879  1.00  0.00    +0.077 A 
ATOM     23  C   UNL     1      28.495  -0.142  53.207  1.00  0.00    +0.141 A 
ATOM     24 Cl   UNL     1      27.283  -2.458  52.485  1.00  0.00    -0.081 Cl
ATOM     25  F   UNL     1      29.653  -0.818  53.218  1.00  0.00    -0.205 F 
ENDBRANCH   1  18
TORSDOF 4
ENDMDL
MODEL 5
REMARK VINA RESULT:    -7.874      0.788      3.940
REMARK INTER + INTRA:         -10.727
REMARK INTER:                  -9.361
REMARK INTRA:                  -1.366
REMARK UNBOUND:                -1.011
REMARK SMILES Cc1cc(C)c(N(C(=O)c2ccc(F)c(Cl)c2)c2ccccn2)[nH]1
REMARK SMILES IDX 8 1 9 2 7 3 6 4 2 5 3 6 24 7 4 8 1 9 5 11 18 12 19 13 23 14
REMARK SMILES IDX 20 15 22 16 21 17 10 18 11 19 17 20 12 21 15 22 13 23 16 24
REMARK SMILES IDX 14 25
REMARK H PARENT 24 10
ROOT
ATOM      1  C   UNL     1      24.903   2.521  52.761  1.00  0.00    +0.265 C 
ATOM      2  O   UNL     1      24.548   2.970  53.855  1.00  0.00    -0.268 OA
ENDROOT
BRANCH   1   3
ATOM      3  N   UNL     1      24.337   2.861  51.516  1.00  0.00    -0.245 N 
BRANCH   3   4
ATOM      4  C   UNL     1      24.752   4.057  50.888  1.00  0.00    +0.122 A 
ATOM      5  C   UNL     1      24.621   6.283  50.447  1.00  0.00    +0.014 A 
ATOM      6  C   UNL     1      25.729   5.795  49.796  1.00  0.00    +0.028 A 
ATOM      7  N   UNL     1      24.012   5.214  51.044  1.00  0.00    -0.345 N 
ATOM      8  C   UNL     1      25.794   4.385  50.016  1.00  0.00    -0.008 A 
ATOM      9  C   UNL     1      24.052   7.648  50.523  1.00  0.00    +0.064 C 
ATOM     10  H   UNL     1      23.125   5.239  51.537  1.00  0.00    +0.168 HD
ATOM     11  C   UNL     1      26.788   3.504  49.339  1.00  0.00    +0.048 C 
ENDBRANCH   3   4
BRANCH   3  12
ATOM     12  C   UNL     1      23.303   2.086  50.918  1.00  0.00    +0.141 A 
ATOM     13  C   UNL     1      22.583   1.168  51.685  1.00  0.00    +0.048 A 
ATOM     14  N   UNL     1      22.974   2.326  49.624  1.00  0.00    -0.238 NA
ATOM     15  C   UNL     1      21.538   0.452  51.104  1.00  0.00    +0.005 A 
ATOM     16  C   UNL     1      21.962   1.615  49.079  1.00  0.00    +0.113 A 
ATOM     17  C   UNL     1      21.223   0.674  49.771  1.00  0.00    +0.020 A 
ENDBRANCH   3  12
ENDBRANCH   1   3
BRANCH   1  18
ATOM     18  C   UNL     1      26.081   1.626  52.812  1.00  0.00    +0.042 A 
ATOM     19  C   UNL     1      27.332   2.119  53.211  1.00  0.00    +0.017 A 
ATOM     20  C   UNL     1      25.905   0.268  52.521  1.00  0.00    +0.037 A 
ATOM     21  C   UNL     1      28.422   1.252  53.276  1.00  0.00    +0.041 A 
ATOM     22  C   UNL     1      27.001  -0.588  52.586  1.00  0.00    +0.077 A 
ATOM     23  C   UNL     1      28.253  -0.094  52.959  1.00  0.00    +0.141 A 
ATOM     24 Cl   UNL     1      26.797  -2.256  52.206  1.00  0.00    -0.081 Cl
ATOM     25  F   UNL     1      29.318  -0.906  53.025  1.00  0.00    -0.205 F 
ENDBRANCH   1  18
TORSDOF 4
ENDMDL
MODEL 6
REMARK VINA RESULT:    -7.650      3.125      5.272
REMARK INTER + INTRA:         -10.451
REMARK INTER:                  -9.397
REMARK INTRA:                  -1.053
REMARK UNBOUND:                -1.011
REMARK SMILES Cc1cc(C)c(N(C(=O)c2ccc(F)c(Cl)c2)c2ccccn2)[nH]1
REMARK SMILES IDX 8 1 9 2 7 3 6 4 2 5 3 6 24 7 4 8 1 9 5 11 18 12 19 13 23 14
REMARK SMILES IDX 20 15 22 16 21 17 10 18 11 19 17 20 12 21 15 22 13 23 16 24
REMARK SMILES IDX 14 25
REMARK H PARENT 24 10
ROOT
ATOM      1  C   UNL     1      24.635   2.883  52.747  1.00  0.00    +0.265 C 
ATOM      2  O   UNL     1      24.096   3.666  53.534  1.00  0.00    -0.268 OA
ENDROOT
BRANCH   1   3
ATOM      3  N   UNL     1      24.654   1.479  52.873  1.00  0.00    -0.245 N 
BRANCH   3   4
ATOM      4  C   UNL     1      23.441   0.770  52.730  1.00  0.00    +0.122 A 
ATOM      5  C   UNL     1      21.835  -0.686  53.413  1.00  0.00    +0.014 A 
ATOM      6  C   UNL     1      21.416  -0.133  52.227  1.00  0.00    +0.028 A 
ATOM      7  N   UNL     1      23.080  -0.180  53.667  1.00  0.00    -0.345 N 
ATOM      8  C   UNL     1      22.442   0.743  51.754  1.00  0.00    -0.008 A 
ATOM      9  C   UNL     1      21.199  -1.681  54.307  1.00  0.00    +0.064 C 
ATOM     10  H   UNL     1      23.685  -0.458  54.433  1.00  0.00    +0.168 HD
ATOM     11  C   UNL     1      22.390   1.405  50.419  1.00  0.00    +0.048 C 
ENDBRANCH   3   4
BRANCH   3  12
ATOM     12  C   UNL     1      25.837   0.768  53.226  1.00  0.00    +0.141 A 
ATOM     13  C   UNL     1      26.278  -0.294  52.434  1.00  0.00    +0.048 A 
ATOM     14  N   UNL     1      26.568   1.203  54.282  1.00  0.00    -0.238 NA
ATOM     15  C   UNL     1      27.465  -0.950  52.758  1.00  0.00    +0.005 A 
ATOM     16  C   UNL     1      27.711   0.547  54.582  1.00  0.00    +0.113 A 
ATOM     17  C   UNL     1      28.195  -0.526  53.858  1.00  0.00    +0.020 A 
ENDBRANCH   3  12
ENDBRANCH   1   3
BRANCH   1  18
ATOM     18  C   UNL     1      25.216   3.519  51.542  1.00  0.00    +0.042 A 
ATOM     19  C   UNL     1      26.322   2.946  50.898  1.00  0.00    +0.017 A 
ATOM     20  C   UNL     1      24.597   4.661  51.022  1.00  0.00    +0.037 A 
ATOM     21  C   UNL     1      26.837   3.548  49.751  1.00  0.00    +0.041 A 
ATOM     22  C   UNL     1      25.120   5.257  49.878  1.00  0.00    +0.077 A 
ATOM     23  C   UNL     1      26.237   4.702  49.250  1.00  0.00    +0.141 A 
ATOM     24 Cl   UNL     1      24.378   6.676  49.246  1.00  0.00    -0.081 Cl
ATOM     25  F   UNL     1      26.753   5.264  48.148  1.00  0.00    -0.205 F 
ENDBRANCH   1  18
TORSDOF 4
ENDMDL
MODEL 7
REMARK VINA RESULT:    -7.644      1.575      4.123
REMARK INTER + INTRA:         -10.443
REMARK INTER:                  -9.948
REMARK INTRA:                  -0.495
REMARK UNBOUND:                -1.011
REMARK SMILES Cc1cc(C)c(N(C(=O)c2ccc(F)c(Cl)c2)c2ccccn2)[nH]1
REMARK SMILES IDX 8 1 9 2 7 3 6 4 2 5 3 6 24 7 4 8 1 9 5 11 18 12 19 13 23 14
REMARK SMILES IDX 20 15 22 16 21 17 10 18 11 19 17 20 12 21 15 22 13 23 16 24
REMARK SMILES IDX 14 25
REMARK H PARENT 24 10
ROOT
ATOM      1  C   UNL     1      24.559   2.134  53.110  1.00  0.00    +0.265 C 
ATOM      2  O   UNL     1      24.607   3.232  53.673  1.00  0.00    -0.268 OA
ENDROOT
BRANCH   1   3
ATOM      3  N   UNL     1      23.444   1.616  52.422  1.00  0.00    -0.245 N 
BRANCH   3   4
ATOM      4  C   UNL     1      23.164   2.099  51.125  1.00  0.00    +0.122 A 
ATOM      5  C   UNL     1      23.412   3.542  49.386  1.00  0.00    +0.014 A 
ATOM      6  C   UNL     1      22.555   2.548  48.981  1.00  0.00    +0.028 A 
ATOM      7  N   UNL     1      23.717   3.291  50.695  1.00  0.00    -0.345 N 
ATOM      8  C   UNL     1      22.343   1.662  50.082  1.00  0.00    -0.008 A 
ATOM      9  C   UNL     1      23.936   4.732  48.677  1.00  0.00    +0.064 C 
ATOM     10  H   UNL     1      24.269   3.892  51.299  1.00  0.00    +0.168 HD
ATOM     11  C   UNL     1      21.354   0.547  50.046  1.00  0.00    +0.048 C 
ENDBRANCH   3   4
BRANCH   3  12
ATOM     12  C   UNL     1      22.546   0.689  53.027  1.00  0.00    +0.141 A 
ATOM     13  C   UNL     1      22.912  -0.651  53.167  1.00  0.00    +0.048 A 
ATOM     14  N   UNL     1      21.382   1.154  53.544  1.00  0.00    -0.238 NA
ATOM     15  C   UNL     1      22.049  -1.538  53.808  1.00  0.00    +0.005 A 
ATOM     16  C   UNL     1      20.557   0.274  54.154  1.00  0.00    +0.113 A 
ATOM     17  C   UNL     1      20.843  -1.070  54.307  1.00  0.00    +0.020 A 
ENDBRANCH   3  12
ENDBRANCH   1   3
BRANCH   1  18
ATOM     18  C   UNL     1      25.835   1.383  53.111  1.00  0.00    +0.042 A 
ATOM     19  C   UNL     1      27.021   1.996  53.539  1.00  0.00    +0.017 A 
ATOM     20  C   UNL     1      25.818   0.033  52.743  1.00  0.00    +0.037 A 
ATOM     21  C   UNL     1      28.206   1.262  53.557  1.00  0.00    +0.041 A 
ATOM     22  C   UNL     1      27.008  -0.691  52.760  1.00  0.00    +0.077 A 
ATOM     23  C   UNL     1      28.195  -0.075  53.163  1.00  0.00    +0.141 A 
ATOM     24 Cl   UNL     1      27.000  -2.347  52.285  1.00  0.00    -0.081 Cl
ATOM     25  F   UNL     1      29.348  -0.759  53.184  1.00  0.00    -0.205 F 
ENDBRANCH   1  18
TORSDOF 4
ENDMDL
MODEL 8
REMARK VINA RESULT:    -7.553      3.173      5.397
REMARK INTER + INTRA:         -10.331
REMARK INTER:                  -8.812
REMARK INTRA:                  -1.519
REMARK UNBOUND:                -1.011
REMARK SMILES Cc1cc(C)c(N(C(=O)c2ccc(F)c(Cl)c2)c2ccccn2)[nH]1
REMARK SMILES IDX 8 1 9 2 7 3 6 4 2 5 3 6 24 7 4 8 1 9 5 11 18 12 19 13 23 14
REMARK SMILES IDX 20 15 22 16 21 17 10 18 11 19 17 20 12 21 15 22 13 23 16 24
REMARK SMILES IDX 14 25
REMARK H PARENT 24 10
ROOT
ATOM      1  C   UNL     1      23.993   3.217  52.281  1.00  0.00    +0.265 C 
ATOM      2  O   UNL     1      23.903   3.825  53.352  1.00  0.00    -0.268 OA
ENDROOT
BRANCH   1   3
ATOM      3  N   UNL     1      23.782   1.835  52.105  1.00  0.00    -0.245 N 
BRANCH   3   4
ATOM      4  C   UNL     1      22.516   1.394  51.662  1.00  0.00    +0.122 A 
ATOM      5  C   UNL     1      20.456   0.479  51.954  1.00  0.00    +0.014 A 
ATOM      6  C   UNL     1      20.550   0.877  50.643  1.00  0.00    +0.028 A 
ATOM      7  N   UNL     1      21.666   0.739  52.534  1.00  0.00    -0.345 N 
ATOM      8  C   UNL     1      21.862   1.403  50.428  1.00  0.00    -0.008 A 
ATOM      9  C   UNL     1      19.353  -0.167  52.704  1.00  0.00    +0.064 C 
ATOM     10  H   UNL     1      21.935   0.484  53.479  1.00  0.00    +0.168 HD
ATOM     11  C   UNL     1      22.365   1.799  49.081  1.00  0.00    +0.048 C 
ENDBRANCH   3   4
BRANCH   3  12
ATOM     12  C   UNL     1      24.774   0.870  52.443  1.00  0.00    +0.141 A 
ATOM     13  C   UNL     1      25.997   0.856  51.768  1.00  0.00    +0.048 A 
ATOM     14  N   UNL     1      24.543   0.038  53.489  1.00  0.00    -0.238 NA
ATOM     15  C   UNL     1      26.981  -0.057  52.142  1.00  0.00    +0.005 A 
ATOM     16  C   UNL     1      25.509  -0.845  53.828  1.00  0.00    +0.113 A 
ATOM     17  C   UNL     1      26.732  -0.932  53.190  1.00  0.00    +0.020 A 
ENDBRANCH   3  12
ENDBRANCH   1   3
BRANCH   1  18
ATOM     18  C   UNL     1      24.257   4.074  51.103  1.00  0.00    +0.042 A 
ATOM     19  C   UNL     1      23.278   4.963  50.636  1.00  0.00    +0.017 A 
ATOM     20  C   UNL     1      25.524   4.028  50.510  1.00  0.00    +0.037 A 
ATOM     21  C   UNL     1      23.558   5.780  49.541  1.00  0.00    +0.041 A 
ATOM     22  C   UNL     1      25.793   4.845  49.414  1.00  0.00    +0.077 A 
ATOM     23  C   UNL     1      24.810   5.713  48.933  1.00  0.00    +0.141 A 
ATOM     24 Cl   UNL     1      27.342   4.777  48.665  1.00  0.00    -0.081 Cl
ATOM     25  F   UNL     1      25.053   6.505  47.879  1.00  0.00    -0.205 F 
ENDBRANCH   1  18
TORSDOF 4
ENDMDL
MODEL 9
REMARK VINA RESULT:    -7.417      2.100      4.555
REMARK INTER + INTRA:         -10.163
REMARK INTER:                  -8.677
REMARK INTRA:                  -1.486
REMARK UNBOUND:                -1.011
REMARK SMILES Cc1cc(C)c(N(C(=O)c2ccc(F)c(Cl)c2)c2ccccn2)[nH]1
REMARK SMILES IDX 8 1 9 2 7 3 6 4 2 5 3 6 24 7 4 8 1 9 5 11 18 12 19 13 23 14
REMARK SMILES IDX 20 15 22 16 21 17 10 18 11 19 17 20 12 21 15 22 13 23 16 24
REMARK SMILES IDX 14 25
REMARK H PARENT 24 10
ROOT
ATOM      1  C   UNL     1      23.504   3.672  51.960  1.00  0.00    +0.265 C 
ATOM      2  O   UNL     1      23.233   4.565  52.769  1.00  0.00    -0.268 OA
ENDROOT
BRANCH   1   3
ATOM      3  N   UNL     1      23.457   3.797  50.558  1.00  0.00    -0.245 N 
BRANCH   3   4
ATOM      4  C   UNL     1      24.511   4.472  49.902  1.00  0.00    +0.122 A 
ATOM      5  C   UNL     1      25.449   6.251  48.843  1.00  0.00    +0.014 A 
ATOM      6  C   UNL     1      26.422   5.291  48.983  1.00  0.00    +0.028 A 
ATOM      7  N   UNL     1      24.293   5.718  49.343  1.00  0.00    -0.345 N 
ATOM      8  C   UNL     1      25.833   4.142  49.596  1.00  0.00    -0.008 A 
ATOM      9  C   UNL     1      25.488   7.604  48.242  1.00  0.00    +0.064 C 
ATOM     10  H   UNL     1      23.378   6.156  49.311  1.00  0.00    +0.168 HD
ATOM     11  C   UNL     1      26.563   2.853  49.770  1.00  0.00    +0.048 C 
ENDBRANCH   3   4
BRANCH   3  12
ATOM     12  C   UNL     1      22.343   3.343  49.795  1.00  0.00    +0.141 A 
ATOM     13  C   UNL     1      22.362   2.073  49.215  1.00  0.00    +0.048 A 
ATOM     14  N   UNL     1      21.237   4.125  49.729  1.00  0.00    -0.238 NA
ATOM     15  C   UNL     1      21.246   1.617  48.515  1.00  0.00    +0.005 A 
ATOM     16  C   UNL     1      20.170   3.666  49.039  1.00  0.00    +0.113 A 
ATOM     17  C   UNL     1      20.127   2.431  48.418  1.00  0.00    +0.020 A 
ENDBRANCH   3  12
ENDBRANCH   1   3
BRANCH   1  18
ATOM     18  C   UNL     1      24.001   2.417  52.569  1.00  0.00    +0.042 A 
ATOM     19  C   UNL     1      25.319   2.327  53.038  1.00  0.00    +0.017 A 
ATOM     20  C   UNL     1      23.109   1.350  52.728  1.00  0.00    +0.037 A 
ATOM     21  C   UNL     1      25.758   1.144  53.631  1.00  0.00    +0.041 A 
ATOM     22  C   UNL     1      23.558   0.171  53.319  1.00  0.00    +0.077 A 
ATOM     23  C   UNL     1      24.877   0.071  53.764  1.00  0.00    +0.141 A 
ATOM     24 Cl   UNL     1      22.472  -1.154  53.497  1.00  0.00    -0.081 Cl
ATOM     25  F   UNL     1      25.324  -1.057  54.333  1.00  0.00    -0.205 F 
ENDBRANCH   1  18
TORSDOF 4
ENDMDL
