REMARK SMILES Cc1cc(C)c(N(C(=O)c2ccc(O)cc2)c2ccccn2)[nH]1
REMARK SMILES IDX 8 1 9 2 7 3 6 4 2 5 3 6 23 7 4 8 1 9 5 11 17 12 18 13 22 14
REMARK SMILES IDX 19 15 21 16 20 17 10 18 11 19 16 20 12 21 15 22 13 23 14 24
REMARK H PARENT 23 10 14 25
ROOT
ATOM      1  C   UNL     1       1.174   1.204  -0.229  1.00  0.00    +0.265 C 
ATOM      2  O   UNL     1       1.707   2.277  -0.519  1.00  0.00    -0.268 OA
ENDROOT
BRANCH   1   3
ATOM      3  N   UNL     1      -0.195   1.025   0.034  1.00  0.00    -0.245 N 
BRANCH   3   4
ATOM      4  C   UNL     1      -0.839  -0.175  -0.321  1.00  0.00    +0.122 A 
ATOM      5  C   UNL     1      -1.224  -2.021  -1.575  1.00  0.00    +0.014 A 
ATOM      6  C   UNL     1      -2.121  -2.032  -0.532  1.00  0.00    +0.028 A 
ATOM      7  N   UNL     1      -0.459  -0.892  -1.437  1.00  0.00    -0.345 N 
ATOM      8  C   UNL     1      -1.887  -0.876   0.269  1.00  0.00    -0.008 A 
ATOM      9  C   UNL     1      -1.022  -2.969  -2.697  1.00  0.00    +0.064 C 
ATOM     10  H   UNL     1       0.253  -0.600  -2.091  1.00  0.00    +0.168 HD
ATOM     11  C   UNL     1      -2.624  -0.560   1.524  1.00  0.00    +0.048 C 
ENDBRANCH   3   4
BRANCH   3  12
ATOM     12  C   UNL     1      -1.030   2.144   0.384  1.00  0.00    +0.141 A 
ATOM     13  C   UNL     1      -0.485   3.263   1.020  1.00  0.00    +0.048 A 
ATOM     14  N   UNL     1      -2.358   2.105   0.099  1.00  0.00    -0.238 NA
ATOM     15  C   UNL     1      -1.299   4.348   1.349  1.00  0.00    +0.005 A 
ATOM     16  C   UNL     1      -3.128   3.168   0.420  1.00  0.00    +0.113 A 
ATOM     17  C   UNL     1      -2.649   4.304   1.041  1.00  0.00    +0.020 A 
ENDBRANCH   3  12
ENDBRANCH   1   3
BRANCH   1  18
ATOM     18  C   UNL     1       2.095   0.032  -0.120  1.00  0.00    +0.041 A 
ATOM     19  C   UNL     1       3.170  -0.060  -1.016  1.00  0.00    +0.017 A 
ATOM     20  C   UNL     1       1.943  -0.934   0.883  1.00  0.00    +0.017 A 
ATOM     21  C   UNL     1       4.064  -1.130  -0.936  1.00  0.00    +0.047 A 
ATOM     22  C   UNL     1       2.836  -2.005   0.959  1.00  0.00    +0.047 A 
ATOM     23  C   UNL     1       3.885  -2.096   0.051  1.00  0.00    +0.115 A 
BRANCH  23  24
ATOM     24  O   UNL     1       4.733  -3.156   0.167  1.00  0.00    -0.508 OA
ATOM     25  H   UNL     1       5.427  -3.079  -0.508  1.00  0.00    +0.293 HD
ENDBRANCH  23  24
ENDBRANCH   1  18
TORSDOF 5
