REMARK SMILES O=[N+]([O-])c1ccc(O)cc1-c1ccc(-c2ccc(F)c(Cl)c2)[nH]1
REMARK SMILES IDX 4 1 5 2 6 3 7 4 9 5 10 6 2 7 1 8 3 9 11 10 12 11 23 12 13 13
REMARK SMILES IDX 14 14 15 16 16 17 22 18 17 19 20 20 18 21 21 22 19 23 8 24
REMARK H PARENT 23 15 8 25
ROOT
ATOM      1  C   UNL     1      -3.155  -0.834   0.438  1.00  0.00    +0.278 A 
ATOM      2  C   UNL     1      -4.437  -0.357   0.755  1.00  0.00    +0.090 A 
ATOM      3  C   UNL     1      -4.739   0.985   0.529  1.00  0.00    +0.053 A 
ATOM      4  C   UNL     1      -3.761   1.819  -0.007  1.00  0.00    +0.116 A 
ATOM      5  C   UNL     1      -2.490   1.337  -0.325  1.00  0.00    +0.063 A 
ATOM      6  C   UNL     1      -2.160  -0.009  -0.108  1.00  0.00    +0.079 A 
ENDROOT
BRANCH   1   7
ATOM      7  N   UNL     1      -2.878  -2.222   0.740  1.00  0.00    +0.063 N 
ATOM      8  O   UNL     1      -2.198  -2.455   1.748  1.00  0.00    -0.258 OA
ATOM      9  O   UNL     1      -3.390  -3.069  -0.005  1.00  0.00    -0.258 OA
ENDBRANCH   1   7
BRANCH   6  10
ATOM     10  C   UNL     1      -0.827  -0.482  -0.478  1.00  0.00    +0.053 A 
ATOM     11  C   UNL     1      -0.432  -1.536  -1.279  1.00  0.00    +0.029 A 
ATOM     12  N   UNL     1       0.327   0.122  -0.026  1.00  0.00    -0.354 N 
ATOM     13  C   UNL     1       0.984  -1.560  -1.299  1.00  0.00    +0.029 A 
ATOM     14  C   UNL     1       1.445  -0.514  -0.520  1.00  0.00    +0.046 A 
ATOM     15  H   UNL     1       0.348   0.903   0.616  1.00  0.00    +0.167 HD
BRANCH  14  16
ATOM     16  C   UNL     1       2.811  -0.100  -0.195  1.00  0.00    -0.000 A 
ATOM     17  C   UNL     1       3.139   1.257  -0.042  1.00  0.00    +0.013 A 
ATOM     18  C   UNL     1       3.820  -1.063  -0.040  1.00  0.00    +0.033 A 
ATOM     19  C   UNL     1       4.446   1.642   0.266  1.00  0.00    +0.041 A 
ATOM     20  C   UNL     1       5.126  -0.675   0.269  1.00  0.00    +0.077 A 
ATOM     21  C   UNL     1       5.432   0.674   0.421  1.00  0.00    +0.141 A 
ATOM     22 Cl   UNL     1       6.344  -1.878   0.460  1.00  0.00    -0.081 Cl
ATOM     23  F   UNL     1       6.680   1.067   0.716  1.00  0.00    -0.205 F 
ENDBRANCH  14  16
ENDBRANCH   6  10
BRANCH   4  24
ATOM     24  O   UNL     1      -4.009   3.138  -0.245  1.00  0.00    -0.508 OA
ATOM     25  H   UNL     1      -4.933   3.337  -0.016  1.00  0.00    +0.293 HD
ENDBRANCH   4  24
TORSDOF 4
