MODEL 1
REMARK VINA RESULT:    -5.798      0.000      0.000
REMARK INTER + INTRA:          -8.114
REMARK INTER:                  -7.662
REMARK INTRA:                  -0.452
REMARK UNBOUND:                -0.452
REMARK SMILES C[N+](C)(C)C[C@H](O)COc1ncnc2sccc12
REMARK SMILES IDX 6 1 5 2 2 3 1 4 3 5 4 6 7 7 8 9 9 10 10 11 11 12 18 13 12 14
REMARK SMILES IDX 17 15 14 16 13 17 16 18 15 19
REMARK H PARENT 7 8
ROOT
ATOM      1  C   UNL     1      26.980   1.956  52.417  1.00  0.00    +0.206 C 
ENDROOT
BRANCH   1   2
ATOM      2  C   UNL     1      28.262   1.627  53.214  1.00  0.00    +0.299 C 
BRANCH   2   3
ATOM      3  N   UNL     1      28.503   0.164  53.677  1.00  0.00    -0.329 N 
ATOM      4  C   UNL     1      27.634  -0.831  52.913  1.00  0.00    +0.334 C 
ATOM      5  C   UNL     1      29.963  -0.245  53.580  1.00  0.00    +0.334 C 
ATOM      6  C   UNL     1      28.099   0.090  55.157  1.00  0.00    +0.334 C 
ENDBRANCH   2   3
ENDBRANCH   1   2
BRANCH   1   7
ATOM      7  O   UNL     1      27.230   2.993  51.456  1.00  0.00    -0.384 OA
ATOM      8  H   UNL     1      27.397   2.547  50.600  1.00  0.00    +0.211 HD
ENDBRANCH   1   7
BRANCH   1   9
ATOM      9  C   UNL     1      25.756   2.315  53.262  1.00  0.00    +0.269 C 
BRANCH   9  10
ATOM     10  O   UNL     1      24.961   1.145  53.503  1.00  0.00    -0.474 OA
BRANCH  10  11
ATOM     11  C   UNL     1      23.631   1.292  53.151  1.00  0.00    +0.225 A 
ATOM     12  N   UNL     1      23.246   2.380  52.447  1.00  0.00    -0.201 NA
ATOM     13  C   UNL     1      22.695   0.340  53.563  1.00  0.00    +0.074 A 
ATOM     14  C   UNL     1      21.938   2.486  52.148  1.00  0.00    +0.227 A 
ATOM     15  C   UNL     1      22.788  -0.879  54.313  1.00  0.00    +0.028 A 
ATOM     16  C   UNL     1      21.388   0.589  53.182  1.00  0.00    +0.130 A 
ATOM     17  N   UNL     1      20.955   1.645  52.473  1.00  0.00    -0.225 NA
ATOM     18  C   UNL     1      21.565  -1.496  54.468  1.00  0.00    +0.068 A 
ATOM     19  S   UNL     1      20.306  -0.614  53.715  1.00  0.00    -0.124 S 
ENDBRANCH  10  11
ENDBRANCH   9  10
ENDBRANCH   1   9
TORSDOF 6
ENDMDL
MODEL 2
REMARK VINA RESULT:    -5.765      1.547      2.122
REMARK INTER + INTRA:          -8.071
REMARK INTER:                  -7.645
REMARK INTRA:                  -0.426
REMARK UNBOUND:                -0.452
REMARK SMILES C[N+](C)(C)C[C@H](O)COc1ncnc2sccc12
REMARK SMILES IDX 6 1 5 2 2 3 1 4 3 5 4 6 7 7 8 9 9 10 10 11 11 12 18 13 12 14
REMARK SMILES IDX 17 15 14 16 13 17 16 18 15 19
REMARK H PARENT 7 8
ROOT
ATOM      1  C   UNL     1      26.935   1.821  52.275  1.00  0.00    +0.206 C 
ENDROOT
BRANCH   1   2
ATOM      2  C   UNL     1      28.108   1.630  53.263  1.00  0.00    +0.299 C 
BRANCH   2   3
ATOM      3  N   UNL     1      28.496   0.190  53.698  1.00  0.00    -0.329 N 
ATOM      4  C   UNL     1      27.728  -0.872  52.915  1.00  0.00    +0.334 C 
ATOM      5  C   UNL     1      29.989  -0.069  53.591  1.00  0.00    +0.334 C 
ATOM      6  C   UNL     1      28.105   0.048  55.177  1.00  0.00    +0.334 C 
ENDBRANCH   2   3
ENDBRANCH   1   2
BRANCH   1   7
ATOM      7  O   UNL     1      27.143   2.983  51.458  1.00  0.00    -0.384 OA
ATOM      8  H   UNL     1      27.222   2.666  50.534  1.00  0.00    +0.211 HD
ENDBRANCH   1   7
BRANCH   1   9
ATOM      9  C   UNL     1      25.544   1.875  52.911  1.00  0.00    +0.269 C 
BRANCH   9  10
ATOM     10  O   UNL     1      24.705   0.856  52.350  1.00  0.00    -0.474 OA
BRANCH  10  11
ATOM     11  C   UNL     1      23.988   0.141  53.294  1.00  0.00    +0.225 A 
ATOM     12  N   UNL     1      24.642  -0.437  54.327  1.00  0.00    -0.201 NA
ATOM     13  C   UNL     1      22.607  -0.012  53.147  1.00  0.00    +0.074 A 
ATOM     14  C   UNL     1      23.902  -1.139  55.205  1.00  0.00    +0.227 A 
ATOM     15  C   UNL     1      21.658   0.453  52.178  1.00  0.00    +0.028 A 
ATOM     16  C   UNL     1      21.986  -0.764  54.129  1.00  0.00    +0.130 A 
ATOM     17  N   UNL     1      22.585  -1.348  55.180  1.00  0.00    -0.225 NA
ATOM     18  C   UNL     1      20.373   0.039  52.460  1.00  0.00    +0.068 A 
ATOM     19  S   UNL     1      20.306  -0.905  53.885  1.00  0.00    -0.124 S 
ENDBRANCH  10  11
ENDBRANCH   9  10
ENDBRANCH   1   9
TORSDOF 6
ENDMDL
MODEL 3
REMARK VINA RESULT:    -5.383      2.006      2.813
REMARK INTER + INTRA:          -7.566
REMARK INTER:                  -7.021
REMARK INTRA:                  -0.545
REMARK UNBOUND:                -0.452
REMARK SMILES C[N+](C)(C)C[C@H](O)COc1ncnc2sccc12
REMARK SMILES IDX 6 1 5 2 2 3 1 4 3 5 4 6 7 7 8 9 9 10 10 11 11 12 18 13 12 14
REMARK SMILES IDX 17 15 14 16 13 17 16 18 15 19
REMARK H PARENT 7 8
ROOT
ATOM      1  C   UNL     1      24.748   2.625  52.335  1.00  0.00    +0.206 C 
ENDROOT
BRANCH   1   2
ATOM      2  C   UNL     1      25.788   2.398  53.456  1.00  0.00    +0.299 C 
BRANCH   2   3
ATOM      3  N   UNL     1      26.781   1.211  53.328  1.00  0.00    -0.329 N 
ATOM      4  C   UNL     1      26.588   0.438  52.026  1.00  0.00    +0.334 C 
ATOM      5  C   UNL     1      28.231   1.647  53.458  1.00  0.00    +0.334 C 
ATOM      6  C   UNL     1      26.482   0.249  54.487  1.00  0.00    +0.334 C 
ENDBRANCH   2   3
ENDBRANCH   1   2
BRANCH   1   7
ATOM      7  O   UNL     1      24.746   3.998  51.913  1.00  0.00    -0.384 OA
ATOM      8  H   UNL     1      24.706   3.990  50.935  1.00  0.00    +0.211 HD
ENDBRANCH   1   7
BRANCH   1   9
ATOM      9  C   UNL     1      23.321   2.181  52.665  1.00  0.00    +0.269 C 
BRANCH   9  10
ATOM     10  O   UNL     1      23.077   0.871  52.135  1.00  0.00    -0.474 OA
BRANCH  10  11
ATOM     11  C   UNL     1      22.368   0.046  52.992  1.00  0.00    +0.225 A 
ATOM     12  N   UNL     1      23.022  -0.607  53.979  1.00  0.00    -0.201 NA
ATOM     13  C   UNL     1      20.996  -0.137  52.801  1.00  0.00    +0.074 A 
ATOM     14  C   UNL     1      22.291  -1.412  54.771  1.00  0.00    +0.227 A 
ATOM     15  C   UNL     1      20.049   0.386  51.860  1.00  0.00    +0.028 A 
ATOM     16  C   UNL     1      20.384  -1.000  53.693  1.00  0.00    +0.130 A 
ATOM     17  N   UNL     1      20.982  -1.662  54.698  1.00  0.00    -0.225 NA
ATOM     18  C   UNL     1      18.774  -0.094  52.074  1.00  0.00    +0.068 A 
ATOM     19  S   UNL     1      18.714  -1.171  53.402  1.00  0.00    -0.124 S 
ENDBRANCH  10  11
ENDBRANCH   9  10
ENDBRANCH   1   9
TORSDOF 6
ENDMDL
MODEL 4
REMARK VINA RESULT:    -5.288      3.613      6.451
REMARK INTER + INTRA:          -7.440
REMARK INTER:                  -7.057
REMARK INTRA:                  -0.383
REMARK UNBOUND:                -0.452
REMARK SMILES C[N+](C)(C)C[C@H](O)COc1ncnc2sccc12
REMARK SMILES IDX 6 1 5 2 2 3 1 4 3 5 4 6 7 7 8 9 9 10 10 11 11 12 18 13 12 14
REMARK SMILES IDX 17 15 14 16 13 17 16 18 15 19
REMARK H PARENT 7 8
ROOT
ATOM      1  C   UNL     1      23.456   4.621  52.514  1.00  0.00    +0.206 C 
ENDROOT
BRANCH   1   2
ATOM      2  C   UNL     1      24.018   5.170  51.183  1.00  0.00    +0.299 C 
BRANCH   2   3
ATOM      3  N   UNL     1      23.288   6.355  50.493  1.00  0.00    -0.329 N 
ATOM      4  C   UNL     1      23.864   7.706  50.908  1.00  0.00    +0.334 C 
ATOM      5  C   UNL     1      23.288   6.237  48.979  1.00  0.00    +0.334 C 
ATOM      6  C   UNL     1      21.825   6.313  50.961  1.00  0.00    +0.334 C 
ENDBRANCH   2   3
ENDBRANCH   1   2
BRANCH   1   7
ATOM      7  O   UNL     1      23.946   5.384  53.627  1.00  0.00    -0.384 OA
ATOM      8  H   UNL     1      24.778   4.954  53.916  1.00  0.00    +0.211 HD
ENDBRANCH   1   7
BRANCH   1   9
ATOM      9  C   UNL     1      23.695   3.130  52.761  1.00  0.00    +0.269 C 
BRANCH   9  10
ATOM     10  O   UNL     1      25.085   2.817  52.592  1.00  0.00    -0.474 OA
BRANCH  10  11
ATOM     11  C   UNL     1      25.466   1.628  53.190  1.00  0.00    +0.225 A 
ATOM     12  N   UNL     1      24.535   0.680  53.437  1.00  0.00    -0.201 NA
ATOM     13  C   UNL     1      26.797   1.440  53.572  1.00  0.00    +0.074 A 
ATOM     14  C   UNL     1      24.954  -0.449  54.039  1.00  0.00    +0.227 A 
ATOM     15  C   UNL     1      27.980   2.243  53.466  1.00  0.00    +0.028 A 
ATOM     16  C   UNL     1      27.072   0.230  54.184  1.00  0.00    +0.130 A 
ATOM     17  N   UNL     1      26.189  -0.751  54.440  1.00  0.00    -0.225 NA
ATOM     18  C   UNL     1      29.089   1.618  53.995  1.00  0.00    +0.068 A 
ATOM     19  S   UNL     1      28.712   0.070  54.618  1.00  0.00    -0.124 S 
ENDBRANCH  10  11
ENDBRANCH   9  10
ENDBRANCH   1   9
TORSDOF 6
ENDMDL
MODEL 5
REMARK VINA RESULT:    -5.268      2.040      3.182
REMARK INTER + INTRA:          -7.414
REMARK INTER:                  -6.950
REMARK INTRA:                  -0.464
REMARK UNBOUND:                -0.452
REMARK SMILES C[N+](C)(C)C[C@H](O)COc1ncnc2sccc12
REMARK SMILES IDX 6 1 5 2 2 3 1 4 3 5 4 6 7 7 8 9 9 10 10 11 11 12 18 13 12 14
REMARK SMILES IDX 17 15 14 16 13 17 16 18 15 19
REMARK H PARENT 7 8
ROOT
ATOM      1  C   UNL     1      26.595  -1.215  53.187  1.00  0.00    +0.206 C 
ENDROOT
BRANCH   1   2
ATOM      2  C   UNL     1      27.512  -0.020  52.839  1.00  0.00    +0.299 C 
BRANCH   2   3
ATOM      3  N   UNL     1      28.590   0.422  53.867  1.00  0.00    -0.329 N 
ATOM      4  C   UNL     1      28.155   0.155  55.306  1.00  0.00    +0.334 C 
ATOM      5  C   UNL     1      29.941  -0.222  53.609  1.00  0.00    +0.334 C 
ATOM      6  C   UNL     1      28.763   1.940  53.710  1.00  0.00    +0.334 C 
ENDBRANCH   2   3
ENDBRANCH   1   2
BRANCH   1   7
ATOM      7  O   UNL     1      26.892  -2.343  52.349  1.00  0.00    -0.384 OA
ATOM      8  H   UNL     1      26.402  -3.105  52.723  1.00  0.00    +0.211 HD
ENDBRANCH   1   7
BRANCH   1   9
ATOM      9  C   UNL     1      25.094  -0.921  53.151  1.00  0.00    +0.269 C 
BRANCH   9  10
ATOM     10  O   UNL     1      24.864   0.492  53.232  1.00  0.00    -0.474 OA
BRANCH  10  11
ATOM     11  C   UNL     1      23.577   0.869  52.888  1.00  0.00    +0.225 A 
ATOM     12  N   UNL     1      22.634  -0.082  52.700  1.00  0.00    -0.201 NA
ATOM     13  C   UNL     1      23.278   2.220  52.697  1.00  0.00    +0.074 A 
ATOM     14  C   UNL     1      21.404   0.336  52.347  1.00  0.00    +0.227 A 
ATOM     15  C   UNL     1      24.045   3.428  52.800  1.00  0.00    +0.028 A 
ATOM     16  C   UNL     1      21.971   2.492  52.331  1.00  0.00    +0.130 A 
ATOM     17  N   UNL     1      20.994   1.589  52.145  1.00  0.00    -0.225 NA
ATOM     18  C   UNL     1      23.298   4.551  52.513  1.00  0.00    +0.068 A 
ATOM     19  S   UNL     1      21.680   4.157  52.119  1.00  0.00    -0.124 S 
ENDBRANCH  10  11
ENDBRANCH   9  10
ENDBRANCH   1   9
TORSDOF 6
ENDMDL
MODEL 6
REMARK VINA RESULT:    -5.267      1.612      2.272
REMARK INTER + INTRA:          -7.412
REMARK INTER:                  -6.985
REMARK INTRA:                  -0.426
REMARK UNBOUND:                -0.452
REMARK SMILES C[N+](C)(C)C[C@H](O)COc1ncnc2sccc12
REMARK SMILES IDX 6 1 5 2 2 3 1 4 3 5 4 6 7 7 8 9 9 10 10 11 11 12 18 13 12 14
REMARK SMILES IDX 17 15 14 16 13 17 16 18 15 19
REMARK H PARENT 7 8
ROOT
ATOM      1  C   UNL     1      26.641  -1.207  53.187  1.00  0.00    +0.206 C 
ENDROOT
BRANCH   1   2
ATOM      2  C   UNL     1      27.538  -0.015  52.785  1.00  0.00    +0.299 C 
BRANCH   2   3
ATOM      3  N   UNL     1      28.614   0.486  53.787  1.00  0.00    -0.329 N 
ATOM      4  C   UNL     1      28.230   0.194  55.236  1.00  0.00    +0.334 C 
ATOM      5  C   UNL     1      29.992  -0.082  53.495  1.00  0.00    +0.334 C 
ATOM      6  C   UNL     1      28.698   2.012  53.629  1.00  0.00    +0.334 C 
ENDBRANCH   2   3
ENDBRANCH   1   2
BRANCH   1   7
ATOM      7  O   UNL     1      26.903  -2.346  52.352  1.00  0.00    -0.384 OA
ATOM      8  H   UNL     1      26.133  -2.944  52.444  1.00  0.00    +0.211 HD
ENDBRANCH   1   7
BRANCH   1   9
ATOM      9  C   UNL     1      25.138  -0.918  53.214  1.00  0.00    +0.269 C 
BRANCH   9  10
ATOM     10  O   UNL     1      24.908   0.487  53.388  1.00  0.00    -0.474 OA
BRANCH  10  11
ATOM     11  C   UNL     1      23.925   0.999  52.560  1.00  0.00    +0.225 A 
ATOM     12  N   UNL     1      24.281   1.696  51.458  1.00  0.00    -0.201 NA
ATOM     13  C   UNL     1      22.579   0.828  52.893  1.00  0.00    +0.074 A 
ATOM     14  C   UNL     1      23.286   2.191  50.697  1.00  0.00    +0.227 A 
ATOM     15  C   UNL     1      21.903   0.171  53.974  1.00  0.00    +0.028 A 
ATOM     16  C   UNL     1      21.674   1.398  52.015  1.00  0.00    +0.130 A 
ATOM     17  N   UNL     1      21.972   2.088  50.902  1.00  0.00    -0.225 NA
ATOM     18  C   UNL     1      20.531   0.268  53.873  1.00  0.00    +0.068 A 
ATOM     19  S   UNL     1      20.055   1.146  52.484  1.00  0.00    -0.124 S 
ENDBRANCH  10  11
ENDBRANCH   9  10
ENDBRANCH   1   9
TORSDOF 6
ENDMDL
MODEL 7
REMARK VINA RESULT:    -5.212      2.846      4.383
REMARK INTER + INTRA:          -7.339
REMARK INTER:                  -6.804
REMARK INTRA:                  -0.536
REMARK UNBOUND:                -0.452
REMARK SMILES C[N+](C)(C)C[C@H](O)COc1ncnc2sccc12
REMARK SMILES IDX 6 1 5 2 2 3 1 4 3 5 4 6 7 7 8 9 9 10 10 11 11 12 18 13 12 14
REMARK SMILES IDX 17 15 14 16 13 17 16 18 15 19
REMARK H PARENT 7 8
ROOT
ATOM      1  C   UNL     1      25.729  -0.243  54.176  1.00  0.00    +0.206 C 
ENDROOT
BRANCH   1   2
ATOM      2  C   UNL     1      27.037  -0.693  53.487  1.00  0.00    +0.299 C 
BRANCH   2   3
ATOM      3  N   UNL     1      28.364   0.025  53.856  1.00  0.00    -0.329 N 
ATOM      4  C   UNL     1      29.589  -0.811  53.498  1.00  0.00    +0.334 C 
ATOM      5  C   UNL     1      28.476   1.402  53.225  1.00  0.00    +0.334 C 
ATOM      6  C   UNL     1      28.362   0.214  55.381  1.00  0.00    +0.334 C 
ENDBRANCH   2   3
ENDBRANCH   1   2
BRANCH   1   7
ATOM      7  O   UNL     1      25.237  -1.268  55.054  1.00  0.00    -0.384 OA
ATOM      8  H   UNL     1      24.266  -1.302  54.929  1.00  0.00    +0.211 HD
ENDBRANCH   1   7
BRANCH   1   9
ATOM      9  C   UNL     1      24.613   0.211  53.232  1.00  0.00    +0.269 C 
BRANCH   9  10
ATOM     10  O   UNL     1      25.173   0.845  52.074  1.00  0.00    -0.474 OA
BRANCH  10  11
ATOM     11  C   UNL     1      24.628   2.088  51.800  1.00  0.00    +0.225 A 
ATOM     12  N   UNL     1      23.448   2.435  52.362  1.00  0.00    -0.201 NA
ATOM     13  C   UNL     1      25.279   2.950  50.914  1.00  0.00    +0.074 A 
ATOM     14  C   UNL     1      22.952   3.646  52.047  1.00  0.00    +0.227 A 
ATOM     15  C   UNL     1      26.499   2.864  50.165  1.00  0.00    +0.028 A 
ATOM     16  C   UNL     1      24.641   4.157  50.686  1.00  0.00    +0.130 A 
ATOM     17  N   UNL     1      23.478   4.557  51.228  1.00  0.00    -0.225 NA
ATOM     18  C   UNL     1      26.734   3.994  49.410  1.00  0.00    +0.068 A 
ATOM     19  S   UNL     1      25.493   5.156  49.600  1.00  0.00    -0.124 S 
ENDBRANCH  10  11
ENDBRANCH   9  10
ENDBRANCH   1   9
TORSDOF 6
ENDMDL
MODEL 8
REMARK VINA RESULT:    -4.970      2.844      6.010
REMARK INTER + INTRA:          -7.019
REMARK INTER:                  -6.381
REMARK INTRA:                  -0.638
REMARK UNBOUND:                -0.452
REMARK SMILES C[N+](C)(C)C[C@H](O)COc1ncnc2sccc12
REMARK SMILES IDX 6 1 5 2 2 3 1 4 3 5 4 6 7 7 8 9 9 10 10 11 11 12 18 13 12 14
REMARK SMILES IDX 17 15 14 16 13 17 16 18 15 19
REMARK H PARENT 7 8
ROOT
ATOM      1  C   UNL     1      22.758   4.041  52.421  1.00  0.00    +0.206 C 
ENDROOT
BRANCH   1   2
ATOM      2  C   UNL     1      22.401   3.407  51.058  1.00  0.00    +0.299 C 
BRANCH   2   3
ATOM      3  N   UNL     1      21.277   2.335  51.001  1.00  0.00    -0.329 N 
ATOM      4  C   UNL     1      20.110   2.772  50.119  1.00  0.00    +0.334 C 
ATOM      5  C   UNL     1      21.788   0.979  50.545  1.00  0.00    +0.334 C 
ATOM      6  C   UNL     1      20.741   2.171  52.431  1.00  0.00    +0.334 C 
ENDBRANCH   2   3
ENDBRANCH   1   2
BRANCH   1   7
ATOM      7  O   UNL     1      22.710   5.474  52.344  1.00  0.00    -0.384 OA
ATOM      8  H   UNL     1      23.604   5.769  52.072  1.00  0.00    +0.211 HD
ENDBRANCH   1   7
BRANCH   1   9
ATOM      9  C   UNL     1      24.094   3.597  53.021  1.00  0.00    +0.269 C 
BRANCH   9  10
ATOM     10  O   UNL     1      24.671   2.553  52.224  1.00  0.00    -0.474 OA
BRANCH  10  11
ATOM     11  C   UNL     1      25.075   1.451  52.957  1.00  0.00    +0.225 A 
ATOM     12  N   UNL     1      24.159   0.533  53.338  1.00  0.00    -0.201 NA
ATOM     13  C   UNL     1      26.415   1.321  53.332  1.00  0.00    +0.074 A 
ATOM     14  C   UNL     1      24.600  -0.509  54.066  1.00  0.00    +0.227 A 
ATOM     15  C   UNL     1      27.588   2.113  53.103  1.00  0.00    +0.028 A 
ATOM     16  C   UNL     1      26.714   0.198  54.083  1.00  0.00    +0.130 A 
ATOM     17  N   UNL     1      25.846  -0.750  54.476  1.00  0.00    -0.225 NA
ATOM     18  C   UNL     1      28.714   1.567  53.683  1.00  0.00    +0.068 A 
ATOM     19  S   UNL     1      28.364   0.105  54.500  1.00  0.00    -0.124 S 
ENDBRANCH  10  11
ENDBRANCH   9  10
ENDBRANCH   1   9
TORSDOF 6
ENDMDL
MODEL 9
REMARK VINA RESULT:    -4.965      2.587      5.142
REMARK INTER + INTRA:          -7.013
REMARK INTER:                  -6.502
REMARK INTRA:                  -0.511
REMARK UNBOUND:                -0.452
REMARK SMILES C[N+](C)(C)C[C@H](O)COc1ncnc2sccc12
REMARK SMILES IDX 6 1 5 2 2 3 1 4 3 5 4 6 7 7 8 9 9 10 10 11 11 12 18 13 12 14
REMARK SMILES IDX 17 15 14 16 13 17 16 18 15 19
REMARK H PARENT 7 8
ROOT
ATOM      1  C   UNL     1      24.585   4.008  50.787  1.00  0.00    +0.206 C 
ENDROOT
BRANCH   1   2
ATOM      2  C   UNL     1      24.113   3.312  49.490  1.00  0.00    +0.299 C 
BRANCH   2   3
ATOM      3  N   UNL     1      22.589   3.216  49.204  1.00  0.00    -0.329 N 
ATOM      4  C   UNL     1      22.077   1.781  49.293  1.00  0.00    +0.334 C 
ATOM      5  C   UNL     1      21.767   4.115  50.111  1.00  0.00    +0.334 C 
ATOM      6  C   UNL     1      22.374   3.695  47.760  1.00  0.00    +0.334 C 
ENDBRANCH   2   3
ENDBRANCH   1   2
BRANCH   1   7
ATOM      7  O   UNL     1      25.769   4.785  50.545  1.00  0.00    -0.384 OA
ATOM      8  H   UNL     1      26.356   4.234  49.987  1.00  0.00    +0.211 HD
ENDBRANCH   1   7
BRANCH   1   9
ATOM      9  C   UNL     1      24.808   3.082  51.984  1.00  0.00    +0.269 C 
BRANCH   9  10
ATOM     10  O   UNL     1      24.748   1.712  51.567  1.00  0.00    -0.474 OA
BRANCH  10  11
ATOM     11  C   UNL     1      24.941   0.806  52.596  1.00  0.00    +0.225 A 
ATOM     12  N   UNL     1      26.197   0.421  52.916  1.00  0.00    -0.201 NA
ATOM     13  C   UNL     1      23.837   0.267  53.262  1.00  0.00    +0.074 A 
ATOM     14  C   UNL     1      26.329  -0.477  53.910  1.00  0.00    +0.227 A 
ATOM     15  C   UNL     1      22.421   0.457  53.144  1.00  0.00    +0.028 A 
ATOM     16  C   UNL     1      24.134  -0.648  54.258  1.00  0.00    +0.130 A 
ATOM     17  N   UNL     1      25.361  -1.054  54.624  1.00  0.00    -0.225 NA
ATOM     18  C   UNL     1      21.710  -0.311  54.043  1.00  0.00    +0.068 A 
ATOM     19  S   UNL     1      22.741  -1.258  55.026  1.00  0.00    -0.124 S 
ENDBRANCH  10  11
ENDBRANCH   9  10
ENDBRANCH   1   9
TORSDOF 6
ENDMDL
