MODEL 1
REMARK VINA RESULT:    -9.190      0.000      0.000
REMARK INTER + INTRA:         -10.852
REMARK INTER:                 -10.265
REMARK INTRA:                  -0.587
REMARK UNBOUND:                -0.587
REMARK SMILES Cc1cccc(C=C2C(=O)N(C)c3ncnc(C(=O)N4CCOCC4)c32)c1
REMARK SMILES IDX 7 1 8 2 9 3 10 4 11 5 12 6 13 7 14 8 15 9 16 10 17 11 26 12
REMARK SMILES IDX 6 13 2 14 3 15 27 16 4 17 5 18 1 19 18 20 19 21 20 22 21 23
REMARK SMILES IDX 25 24 22 25 24 26 23 27
REMARK H PARENT
ROOT
ATOM      1  C   UNL     1      25.182   1.001  52.207  1.00  0.00    +0.022 C 
ATOM      2  C   UNL     1      24.070   0.465  52.733  1.00  0.00    +0.054 C 
ATOM      3  C   UNL     1      24.006  -0.444  53.939  1.00  0.00    +0.260 C 
ATOM      4  O   UNL     1      24.920  -0.803  54.656  1.00  0.00    -0.269 OA
ATOM      5  N   UNL     1      22.668  -0.793  54.041  1.00  0.00    -0.295 N 
ATOM      6  C   UNL     1      22.105  -1.659  55.040  1.00  0.00    +0.155 C 
ATOM      7  C   UNL     1      21.899  -0.194  53.039  1.00  0.00    +0.147 A 
ATOM      8  N   UNL     1      20.580  -0.378  52.904  1.00  0.00    -0.218 NA
ATOM      9  C   UNL     1      20.033   0.283  51.877  1.00  0.00    +0.225 A 
ATOM     10  N   UNL     1      20.686   1.075  51.012  1.00  0.00    -0.230 NA
ATOM     11  C   UNL     1      22.024   1.222  51.221  1.00  0.00    +0.141 A 
ATOM     12  C   UNL     1      22.699   0.591  52.230  1.00  0.00    +0.062 A 
ENDROOT
BRANCH   1  13
ATOM     13  C   UNL     1      26.544   0.840  52.723  1.00  0.00    -0.025 A 
ATOM     14  C   UNL     1      28.475  -0.562  53.205  1.00  0.00    -0.051 A 
ATOM     15  C   UNL     1      29.124   0.546  53.763  1.00  0.00    +0.003 A 
ATOM     16  C   UNL     1      27.186  -0.404  52.679  1.00  0.00    +0.011 A 
ATOM     17  C   UNL     1      28.486   1.786  53.817  1.00  0.00    +0.001 A 
ATOM     18  C   UNL     1      27.197   1.932  53.302  1.00  0.00    +0.008 A 
ATOM     19  C   UNL     1      29.174  -1.885  53.108  1.00  0.00    +0.044 C 
ENDBRANCH   1  13
BRANCH  11  20
ATOM     20  C   UNL     1      22.700   2.180  50.311  1.00  0.00    +0.273 C 
ATOM     21  O   UNL     1      22.908   1.822  49.152  1.00  0.00    -0.267 OA
ATOM     22  N   UNL     1      23.089   3.428  50.804  1.00  0.00    -0.333 N 
ATOM     23  C   UNL     1      22.523   4.043  52.012  1.00  0.00    +0.148 C 
ATOM     24  C   UNL     1      23.666   4.384  49.857  1.00  0.00    +0.148 C 
ATOM     25  C   UNL     1      23.486   5.066  52.622  1.00  0.00    +0.181 C 
ATOM     26  C   UNL     1      24.573   5.397  50.559  1.00  0.00    +0.181 C 
ATOM     27  O   UNL     1      23.890   6.038  51.647  1.00  0.00    -0.378 OA
ENDBRANCH  11  20
TORSDOF 2
ENDMDL
MODEL 2
REMARK VINA RESULT:    -8.352      1.783      2.665
REMARK INTER + INTRA:          -9.916
REMARK INTER:                  -9.047
REMARK INTRA:                  -0.869
REMARK UNBOUND:                -0.587
REMARK SMILES Cc1cccc(C=C2C(=O)N(C)c3ncnc(C(=O)N4CCOCC4)c32)c1
REMARK SMILES IDX 7 1 8 2 9 3 10 4 11 5 12 6 13 7 14 8 15 9 16 10 17 11 26 12
REMARK SMILES IDX 6 13 2 14 3 15 27 16 4 17 5 18 1 19 18 20 19 21 20 22 21 23
REMARK SMILES IDX 25 24 22 25 24 26 23 27
REMARK H PARENT
ROOT
ATOM      1  C   UNL     1      24.448   1.870  52.700  1.00  0.00    +0.022 C 
ATOM      2  C   UNL     1      23.149   1.550  52.800  1.00  0.00    +0.054 C 
ATOM      3  C   UNL     1      22.594   0.216  53.248  1.00  0.00    +0.260 C 
ATOM      4  O   UNL     1      23.208  -0.759  53.633  1.00  0.00    -0.269 OA
ATOM      5  N   UNL     1      21.221   0.347  53.109  1.00  0.00    -0.295 N 
ATOM      6  C   UNL     1      20.251  -0.671  53.407  1.00  0.00    +0.155 C 
ATOM      7  C   UNL     1      20.867   1.613  52.634  1.00  0.00    +0.147 A 
ATOM      8  N   UNL     1      19.604   1.993  52.399  1.00  0.00    -0.218 NA
ATOM      9  C   UNL     1      19.481   3.245  51.943  1.00  0.00    +0.225 A 
ATOM     10  N   UNL     1      20.487   4.102  51.711  1.00  0.00    -0.230 NA
ATOM     11  C   UNL     1      21.742   3.647  51.986  1.00  0.00    +0.141 A 
ATOM     12  C   UNL     1      21.998   2.385  52.446  1.00  0.00    +0.062 A 
ENDROOT
BRANCH   1  13
ATOM     13  C   UNL     1      25.578   1.003  53.044  1.00  0.00    -0.025 A 
ATOM     14  C   UNL     1      27.224   0.204  54.650  1.00  0.00    -0.051 A 
ATOM     15  C   UNL     1      27.769  -0.624  53.660  1.00  0.00    +0.003 A 
ATOM     16  C   UNL     1      26.122   1.009  54.334  1.00  0.00    +0.011 A 
ATOM     17  C   UNL     1      27.236  -0.629  52.371  1.00  0.00    +0.001 A 
ATOM     18  C   UNL     1      26.146   0.185  52.061  1.00  0.00    +0.008 A 
ATOM     19  C   UNL     1      27.768   0.180  56.047  1.00  0.00    +0.044 C 
ENDBRANCH   1  13
BRANCH  11  20
ATOM     20  C   UNL     1      22.825   4.648  51.814  1.00  0.00    +0.273 C 
ATOM     21  O   UNL     1      23.353   5.102  52.829  1.00  0.00    -0.267 OA
ATOM     22  N   UNL     1      23.184   5.048  50.525  1.00  0.00    -0.333 N 
ATOM     23  C   UNL     1      22.887   4.270  49.316  1.00  0.00    +0.148 C 
ATOM     24  C   UNL     1      24.319   5.964  50.388  1.00  0.00    +0.148 C 
ATOM     25  C   UNL     1      22.860   5.162  48.071  1.00  0.00    +0.181 C 
ATOM     26  C   UNL     1      24.235   6.777  49.095  1.00  0.00    +0.181 C 
ATOM     27  O   UNL     1      24.072   5.921  47.954  1.00  0.00    -0.378 OA
ENDBRANCH  11  20
TORSDOF 2
ENDMDL
MODEL 3
REMARK VINA RESULT:    -7.944      2.678      5.124
REMARK INTER + INTRA:          -9.460
REMARK INTER:                  -8.442
REMARK INTRA:                  -1.018
REMARK UNBOUND:                -0.587
REMARK SMILES Cc1cccc(C=C2C(=O)N(C)c3ncnc(C(=O)N4CCOCC4)c32)c1
REMARK SMILES IDX 7 1 8 2 9 3 10 4 11 5 12 6 13 7 14 8 15 9 16 10 17 11 26 12
REMARK SMILES IDX 6 13 2 14 3 15 27 16 4 17 5 18 1 19 18 20 19 21 20 22 21 23
REMARK SMILES IDX 25 24 22 25 24 26 23 27
REMARK H PARENT
ROOT
ATOM      1  C   UNL     1      24.583   2.601  52.106  1.00  0.00    +0.022 C 
ATOM      2  C   UNL     1      24.915   3.428  51.102  1.00  0.00    +0.054 C 
ATOM      3  C   UNL     1      26.283   3.554  50.470  1.00  0.00    +0.260 C 
ATOM      4  O   UNL     1      27.285   2.913  50.718  1.00  0.00    -0.269 OA
ATOM      5  N   UNL     1      26.146   4.580  49.548  1.00  0.00    -0.295 N 
ATOM      6  C   UNL     1      27.188   5.080  48.694  1.00  0.00    +0.155 C 
ATOM      7  C   UNL     1      24.846   5.095  49.535  1.00  0.00    +0.147 A 
ATOM      8  N   UNL     1      24.453   6.102  48.745  1.00  0.00    -0.218 NA
ATOM      9  C   UNL     1      23.168   6.446  48.889  1.00  0.00    +0.225 A 
ATOM     10  N   UNL     1      22.291   5.883  49.734  1.00  0.00    -0.230 NA
ATOM     11  C   UNL     1      22.762   4.857  50.497  1.00  0.00    +0.141 A 
ATOM     12  C   UNL     1      24.058   4.420  50.448  1.00  0.00    +0.062 A 
ENDROOT
BRANCH   1  13
ATOM     13  C   UNL     1      25.472   1.632  52.754  1.00  0.00    -0.025 A 
ATOM     14  C   UNL     1      26.451  -0.593  52.877  1.00  0.00    -0.051 A 
ATOM     15  C   UNL     1      27.134  -0.214  54.040  1.00  0.00    +0.003 A 
ATOM     16  C   UNL     1      25.627   0.341  52.235  1.00  0.00    +0.011 A 
ATOM     17  C   UNL     1      26.976   1.069  54.566  1.00  0.00    +0.001 A 
ATOM     18  C   UNL     1      26.144   1.989  53.927  1.00  0.00    +0.008 A 
ATOM     19  C   UNL     1      26.651  -1.957  52.287  1.00  0.00    +0.044 C 
ENDBRANCH   1  13
BRANCH  11  20
ATOM     20  C   UNL     1      21.747   4.189  51.349  1.00  0.00    +0.273 C 
ATOM     21  O   UNL     1      21.511   4.679  52.453  1.00  0.00    -0.267 OA
ATOM     22  N   UNL     1      21.119   3.033  50.880  1.00  0.00    -0.333 N 
ATOM     23  C   UNL     1      21.061   2.651  49.463  1.00  0.00    +0.148 C 
ATOM     24  C   UNL     1      20.055   2.454  51.703  1.00  0.00    +0.148 C 
ATOM     25  C   UNL     1      20.855   1.142  49.299  1.00  0.00    +0.181 C 
ATOM     26  C   UNL     1      19.886   0.957  51.437  1.00  0.00    +0.181 C 
ATOM     27  O   UNL     1      19.709   0.695  50.037  1.00  0.00    -0.378 OA
ENDBRANCH  11  20
TORSDOF 2
ENDMDL
MODEL 4
REMARK VINA RESULT:    -7.756      2.374      4.556
REMARK INTER + INTRA:          -9.249
REMARK INTER:                  -9.019
REMARK INTRA:                  -0.230
REMARK UNBOUND:                -0.587
REMARK SMILES Cc1cccc(C=C2C(=O)N(C)c3ncnc(C(=O)N4CCOCC4)c32)c1
REMARK SMILES IDX 7 1 8 2 9 3 10 4 11 5 12 6 13 7 14 8 15 9 16 10 17 11 26 12
REMARK SMILES IDX 6 13 2 14 3 15 27 16 4 17 5 18 1 19 18 20 19 21 20 22 21 23
REMARK SMILES IDX 25 24 22 25 24 26 23 27
REMARK H PARENT
ROOT
ATOM      1  C   UNL     1      24.735   3.136  50.207  1.00  0.00    +0.022 C 
ATOM      2  C   UNL     1      24.930   2.315  51.251  1.00  0.00    +0.054 C 
ATOM      3  C   UNL     1      26.203   2.188  52.056  1.00  0.00    +0.260 C 
ATOM      4  O   UNL     1      27.232   2.823  51.935  1.00  0.00    -0.269 OA
ATOM      5  N   UNL     1      25.943   1.170  52.960  1.00  0.00    -0.295 N 
ATOM      6  C   UNL     1      26.864   0.673  53.946  1.00  0.00    +0.155 C 
ATOM      7  C   UNL     1      24.650   0.661  52.809  1.00  0.00    +0.147 A 
ATOM      8  N   UNL     1      24.152  -0.338  53.549  1.00  0.00    -0.218 NA
ATOM      9  C   UNL     1      22.895  -0.678  53.242  1.00  0.00    +0.225 A 
ATOM     10  N   UNL     1      22.138  -0.118  52.286  1.00  0.00    -0.230 NA
ATOM     11  C   UNL     1      22.709   0.900  51.583  1.00  0.00    +0.141 A 
ATOM     12  C   UNL     1      23.990   1.332  51.797  1.00  0.00    +0.062 A 
ENDROOT
BRANCH   1  13
ATOM     13  C   UNL     1      25.705   4.095  49.672  1.00  0.00    -0.025 A 
ATOM     14  C   UNL     1      26.354   6.382  49.146  1.00  0.00    -0.051 A 
ATOM     15  C   UNL     1      27.550   5.902  48.598  1.00  0.00    +0.003 A 
ATOM     16  C   UNL     1      25.439   5.470  49.690  1.00  0.00    +0.011 A 
ATOM     17  C   UNL     1      27.816   4.533  48.571  1.00  0.00    +0.001 A 
ATOM     18  C   UNL     1      26.894   3.630  49.104  1.00  0.00    +0.008 A 
ATOM     19  C   UNL     1      26.084   7.855  49.214  1.00  0.00    +0.044 C 
ENDBRANCH   1  13
BRANCH  11  20
ATOM     20  C   UNL     1      21.816   1.565  50.602  1.00  0.00    +0.273 C 
ATOM     21  O   UNL     1      21.399   0.894  49.658  1.00  0.00    -0.267 OA
ATOM     22  N   UNL     1      21.503   2.915  50.774  1.00  0.00    -0.333 N 
ATOM     23  C   UNL     1      21.631   3.629  52.050  1.00  0.00    +0.148 C 
ATOM     24  C   UNL     1      20.544   3.515  49.843  1.00  0.00    +0.148 C 
ATOM     25  C   UNL     1      21.786   5.137  51.834  1.00  0.00    +0.181 C 
ATOM     26  C   UNL     1      20.740   5.028  49.728  1.00  0.00    +0.181 C 
ATOM     27  O   UNL     1      20.723   5.653  51.020  1.00  0.00    -0.378 OA
ENDBRANCH  11  20
TORSDOF 2
ENDMDL
MODEL 5
REMARK VINA RESULT:    -7.535      2.751      6.763
REMARK INTER + INTRA:          -9.002
REMARK INTER:                  -7.980
REMARK INTRA:                  -1.022
REMARK UNBOUND:                -0.587
REMARK SMILES Cc1cccc(C=C2C(=O)N(C)c3ncnc(C(=O)N4CCOCC4)c32)c1
REMARK SMILES IDX 7 1 8 2 9 3 10 4 11 5 12 6 13 7 14 8 15 9 16 10 17 11 26 12
REMARK SMILES IDX 6 13 2 14 3 15 27 16 4 17 5 18 1 19 18 20 19 21 20 22 21 23
REMARK SMILES IDX 25 24 22 25 24 26 23 27
REMARK H PARENT
ROOT
ATOM      1  C   UNL     1      19.456   1.198  50.955  1.00  0.00    +0.022 C 
ATOM      2  C   UNL     1      20.352   0.644  51.786  1.00  0.00    +0.054 C 
ATOM      3  C   UNL     1      20.044  -0.320  52.909  1.00  0.00    +0.260 C 
ATOM      4  O   UNL     1      18.967  -0.789  53.220  1.00  0.00    -0.269 OA
ATOM      5  N   UNL     1      21.268  -0.543  53.520  1.00  0.00    -0.295 N 
ATOM      6  C   UNL     1      21.491  -1.394  54.657  1.00  0.00    +0.155 C 
ATOM      7  C   UNL     1      22.297   0.168  52.895  1.00  0.00    +0.147 A 
ATOM      8  N   UNL     1      23.573   0.139  53.299  1.00  0.00    -0.218 NA
ATOM      9  C   UNL     1      24.400   0.893  52.566  1.00  0.00    +0.225 A 
ATOM     10  N   UNL     1      24.054   1.646  51.510  1.00  0.00    -0.230 NA
ATOM     11  C   UNL     1      22.739   1.615  51.153  1.00  0.00    +0.141 A 
ATOM     12  C   UNL     1      21.796   0.890  51.829  1.00  0.00    +0.062 A 
ENDROOT
BRANCH   1  13
ATOM     13  C   UNL     1      18.012   0.946  50.951  1.00  0.00    -0.025 A 
ATOM     14  C   UNL     1      15.766   1.473  51.728  1.00  0.00    -0.051 A 
ATOM     15  C   UNL     1      15.267   0.410  50.966  1.00  0.00    +0.003 A 
ATOM     16  C   UNL     1      17.142   1.740  51.708  1.00  0.00    +0.011 A 
ATOM     17  C   UNL     1      16.130  -0.389  50.216  1.00  0.00    +0.001 A 
ATOM     18  C   UNL     1      17.501  -0.124  50.210  1.00  0.00    +0.008 A 
ATOM     19  C   UNL     1      14.836   2.359  52.502  1.00  0.00    +0.044 C 
ENDBRANCH   1  13
BRANCH  11  20
ATOM     20  C   UNL     1      22.404   2.377  49.924  1.00  0.00    +0.273 C 
ATOM     21  O   UNL     1      22.442   1.779  48.849  1.00  0.00    -0.267 OA
ATOM     22  N   UNL     1      22.081   3.731  50.030  1.00  0.00    -0.333 N 
ATOM     23  C   UNL     1      21.635   4.371  51.275  1.00  0.00    +0.148 C 
ATOM     24  C   UNL     1      21.663   4.429  48.813  1.00  0.00    +0.148 C 
ATOM     25  C   UNL     1      21.909   5.878  51.258  1.00  0.00    +0.181 C 
ATOM     26  C   UNL     1      21.927   5.933  48.904  1.00  0.00    +0.181 C 
ATOM     27  O   UNL     1      21.343   6.491  50.091  1.00  0.00    -0.378 OA
ENDBRANCH  11  20
TORSDOF 2
ENDMDL
MODEL 6
REMARK VINA RESULT:    -7.249      2.228      3.201
REMARK INTER + INTRA:          -8.684
REMARK INTER:                  -8.025
REMARK INTRA:                  -0.658
REMARK UNBOUND:                -0.587
REMARK SMILES Cc1cccc(C=C2C(=O)N(C)c3ncnc(C(=O)N4CCOCC4)c32)c1
REMARK SMILES IDX 7 1 8 2 9 3 10 4 11 5 12 6 13 7 14 8 15 9 16 10 17 11 26 12
REMARK SMILES IDX 6 13 2 14 3 15 27 16 4 17 5 18 1 19 18 20 19 21 20 22 21 23
REMARK SMILES IDX 25 24 22 25 24 26 23 27
REMARK H PARENT
ROOT
ATOM      1  C   UNL     1      23.084   2.287  52.053  1.00  0.00    +0.022 C 
ATOM      2  C   UNL     1      21.889   1.721  52.285  1.00  0.00    +0.054 C 
ATOM      3  C   UNL     1      21.641   0.471  53.098  1.00  0.00    +0.260 C 
ATOM      4  O   UNL     1      22.451  -0.199  53.708  1.00  0.00    -0.269 OA
ATOM      5  N   UNL     1      20.278   0.246  52.982  1.00  0.00    -0.295 N 
ATOM      6  C   UNL     1      19.557  -0.844  53.580  1.00  0.00    +0.155 C 
ATOM      7  C   UNL     1      19.657   1.222  52.196  1.00  0.00    +0.147 A 
ATOM      8  N   UNL     1      18.348   1.228  51.916  1.00  0.00    -0.218 NA
ATOM      9  C   UNL     1      17.954   2.248  51.144  1.00  0.00    +0.225 A 
ATOM     10  N   UNL     1      18.745   3.214  50.651  1.00  0.00    -0.230 NA
ATOM     11  C   UNL     1      20.063   3.146  50.989  1.00  0.00    +0.141 A 
ATOM     12  C   UNL     1      20.587   2.147  51.764  1.00  0.00    +0.062 A 
ENDROOT
BRANCH   1  13
ATOM     13  C   UNL     1      24.373   1.824  52.575  1.00  0.00    -0.025 A 
ATOM     14  C   UNL     1      26.160   0.172  52.645  1.00  0.00    -0.051 A 
ATOM     15  C   UNL     1      26.809   0.935  53.624  1.00  0.00    +0.003 A 
ATOM     16  C   UNL     1      24.944   0.629  52.119  1.00  0.00    +0.011 A 
ATOM     17  C   UNL     1      26.240   2.123  54.086  1.00  0.00    +0.001 A 
ATOM     18  C   UNL     1      25.023   2.565  53.566  1.00  0.00    +0.008 A 
ATOM     19  C   UNL     1      26.789  -1.082  52.116  1.00  0.00    +0.044 C 
ENDBRANCH   1  13
BRANCH  11  20
ATOM     20  C   UNL     1      20.894   4.280  50.513  1.00  0.00    +0.273 C 
ATOM     21  O   UNL     1      21.167   5.170  51.318  1.00  0.00    -0.267 OA
ATOM     22  N   UNL     1      21.312   4.304  49.180  1.00  0.00    -0.333 N 
ATOM     23  C   UNL     1      21.362   3.118  48.317  1.00  0.00    +0.148 C 
ATOM     24  C   UNL     1      22.208   5.386  48.768  1.00  0.00    +0.148 C 
ATOM     25  C   UNL     1      21.286   3.500  46.836  1.00  0.00    +0.181 C 
ATOM     26  C   UNL     1      22.102   5.666  47.268  1.00  0.00    +0.181 C 
ATOM     27  O   UNL     1      22.292   4.467  46.502  1.00  0.00    -0.378 OA
ENDBRANCH  11  20
TORSDOF 2
ENDMDL
MODEL 7
REMARK VINA RESULT:    -7.084      3.205      5.949
REMARK INTER + INTRA:          -8.499
REMARK INTER:                  -8.153
REMARK INTRA:                  -0.346
REMARK UNBOUND:                -0.587
REMARK SMILES Cc1cccc(C=C2C(=O)N(C)c3ncnc(C(=O)N4CCOCC4)c32)c1
REMARK SMILES IDX 7 1 8 2 9 3 10 4 11 5 12 6 13 7 14 8 15 9 16 10 17 11 26 12
REMARK SMILES IDX 6 13 2 14 3 15 27 16 4 17 5 18 1 19 18 20 19 21 20 22 21 23
REMARK SMILES IDX 25 24 22 25 24 26 23 27
REMARK H PARENT
ROOT
ATOM      1  C   UNL     1      21.178   1.919  51.864  1.00  0.00    +0.022 C 
ATOM      2  C   UNL     1      21.645   3.137  51.547  1.00  0.00    +0.054 C 
ATOM      3  C   UNL     1      22.895   3.782  52.103  1.00  0.00    +0.260 C 
ATOM      4  O   UNL     1      23.702   3.307  52.878  1.00  0.00    -0.269 OA
ATOM      5  N   UNL     1      22.911   5.049  51.541  1.00  0.00    -0.295 N 
ATOM      6  C   UNL     1      23.911   6.054  51.776  1.00  0.00    +0.155 C 
ATOM      7  C   UNL     1      21.817   5.254  50.695  1.00  0.00    +0.147 A 
ATOM      8  N   UNL     1      21.588   6.399  50.039  1.00  0.00    -0.218 NA
ATOM      9  C   UNL     1      20.484   6.391  49.284  1.00  0.00    +0.225 A 
ATOM     10  N   UNL     1      19.628   5.366  49.150  1.00  0.00    -0.230 NA
ATOM     11  C   UNL     1      19.934   4.231  49.840  1.00  0.00    +0.141 A 
ATOM     12  C   UNL     1      21.029   4.120  50.652  1.00  0.00    +0.062 A 
ENDROOT
BRANCH   1  13
ATOM     13  C   UNL     1      21.810   0.965  52.780  1.00  0.00    -0.025 A 
ATOM     14  C   UNL     1      23.708  -0.418  53.421  1.00  0.00    -0.051 A 
ATOM     15  C   UNL     1      22.975  -0.895  54.514  1.00  0.00    +0.003 A 
ATOM     16  C   UNL     1      23.119   0.521  52.562  1.00  0.00    +0.011 A 
ATOM     17  C   UNL     1      21.666  -0.461  54.731  1.00  0.00    +0.001 A 
ATOM     18  C   UNL     1      21.083   0.465  53.865  1.00  0.00    +0.008 A 
ATOM     19  C   UNL     1      25.128  -0.851  53.209  1.00  0.00    +0.044 C 
ENDBRANCH   1  13
BRANCH  11  20
ATOM     20  C   UNL     1      19.025   3.084  49.595  1.00  0.00    +0.273 C 
ATOM     21  O   UNL     1      19.340   2.278  48.720  1.00  0.00    -0.267 OA
ATOM     22  N   UNL     1      17.851   2.974  50.344  1.00  0.00    -0.333 N 
ATOM     23  C   UNL     1      17.635   3.649  51.630  1.00  0.00    +0.148 C 
ATOM     24  C   UNL     1      17.026   1.781  50.144  1.00  0.00    +0.148 C 
ATOM     25  C   UNL     1      16.142   3.831  51.922  1.00  0.00    +0.181 C 
ATOM     26  C   UNL     1      15.562   2.039  50.508  1.00  0.00    +0.181 C 
ATOM     27  O   UNL     1      15.444   2.580  51.832  1.00  0.00    -0.378 OA
ENDBRANCH  11  20
TORSDOF 2
ENDMDL
MODEL 8
REMARK VINA RESULT:    -6.824      3.381      7.372
REMARK INTER + INTRA:          -8.208
REMARK INTER:                  -7.347
REMARK INTRA:                  -0.862
REMARK UNBOUND:                -0.587
REMARK SMILES Cc1cccc(C=C2C(=O)N(C)c3ncnc(C(=O)N4CCOCC4)c32)c1
REMARK SMILES IDX 7 1 8 2 9 3 10 4 11 5 12 6 13 7 14 8 15 9 16 10 17 11 26 12
REMARK SMILES IDX 6 13 2 14 3 15 27 16 4 17 5 18 1 19 18 20 19 21 20 22 21 23
REMARK SMILES IDX 25 24 22 25 24 26 23 27
REMARK H PARENT
ROOT
ATOM      1  C   UNL     1      18.631   1.359  51.345  1.00  0.00    +0.022 C 
ATOM      2  C   UNL     1      19.647   0.821  52.037  1.00  0.00    +0.054 C 
ATOM      3  C   UNL     1      19.598  -0.464  52.833  1.00  0.00    +0.260 C 
ATOM      4  O   UNL     1      18.671  -1.241  52.944  1.00  0.00    -0.269 OA
ATOM      5  N   UNL     1      20.849  -0.555  53.423  1.00  0.00    -0.295 N 
ATOM      6  C   UNL     1      21.288  -1.613  54.291  1.00  0.00    +0.155 C 
ATOM      7  C   UNL     1      21.666   0.525  53.075  1.00  0.00    +0.147 A 
ATOM      8  N   UNL     1      22.918   0.686  53.522  1.00  0.00    -0.218 NA
ATOM      9  C   UNL     1      23.527   1.789  53.071  1.00  0.00    +0.225 A 
ATOM     10  N   UNL     1      22.993   2.704  52.248  1.00  0.00    -0.230 NA
ATOM     11  C   UNL     1      21.719   2.465  51.826  1.00  0.00    +0.141 A 
ATOM     12  C   UNL     1      20.989   1.379  52.224  1.00  0.00    +0.062 A 
ENDROOT
BRANCH   1  13
ATOM     13  C   UNL     1      17.291   0.785  51.194  1.00  0.00    -0.025 A 
ATOM     14  C   UNL     1      14.997   0.528  51.966  1.00  0.00    -0.051 A 
ATOM     15  C   UNL     1      14.756  -0.365  50.915  1.00  0.00    +0.003 A 
ATOM     16  C   UNL     1      16.267   1.105  52.094  1.00  0.00    +0.011 A 
ATOM     17  C   UNL     1      15.775  -0.693  50.019  1.00  0.00    +0.001 A 
ATOM     18  C   UNL     1      17.041  -0.123  50.161  1.00  0.00    +0.008 A 
ATOM     19  C   UNL     1      13.893   0.914  52.904  1.00  0.00    +0.044 C 
ENDBRANCH   1  13
BRANCH  11  20
ATOM     20  C   UNL     1      21.191   3.440  50.839  1.00  0.00    +0.273 C 
ATOM     21  O   UNL     1      20.491   4.361  51.260  1.00  0.00    -0.267 OA
ATOM     22  N   UNL     1      21.489   3.267  49.486  1.00  0.00    -0.333 N 
ATOM     23  C   UNL     1      22.611   2.459  48.992  1.00  0.00    +0.148 C 
ATOM     24  C   UNL     1      21.033   4.298  48.552  1.00  0.00    +0.148 C 
ATOM     25  C   UNL     1      22.366   1.979  47.558  1.00  0.00    +0.181 C 
ATOM     26  C   UNL     1      20.863   3.742  47.136  1.00  0.00    +0.181 C 
ATOM     27  O   UNL     1      22.058   3.081  46.692  1.00  0.00    -0.378 OA
ENDBRANCH  11  20
TORSDOF 2
ENDMDL
MODEL 9
REMARK VINA RESULT:    -6.702      2.853      6.815
REMARK INTER + INTRA:          -8.073
REMARK INTER:                  -7.194
REMARK INTRA:                  -0.879
REMARK UNBOUND:                -0.587
REMARK SMILES Cc1cccc(C=C2C(=O)N(C)c3ncnc(C(=O)N4CCOCC4)c32)c1
REMARK SMILES IDX 7 1 8 2 9 3 10 4 11 5 12 6 13 7 14 8 15 9 16 10 17 11 26 12
REMARK SMILES IDX 6 13 2 14 3 15 27 16 4 17 5 18 1 19 18 20 19 21 20 22 21 23
REMARK SMILES IDX 25 24 22 25 24 26 23 27
REMARK H PARENT
ROOT
ATOM      1  C   UNL     1      19.626   2.128  51.260  1.00  0.00    +0.022 C 
ATOM      2  C   UNL     1      20.588   1.471  51.927  1.00  0.00    +0.054 C 
ATOM      3  C   UNL     1      20.422   0.162  52.666  1.00  0.00    +0.260 C 
ATOM      4  O   UNL     1      19.428  -0.533  52.745  1.00  0.00    -0.269 OA
ATOM      5  N   UNL     1      21.659  -0.066  53.249  1.00  0.00    -0.295 N 
ATOM      6  C   UNL     1      21.999  -1.195  54.070  1.00  0.00    +0.155 C 
ATOM      7  C   UNL     1      22.570   0.950  52.946  1.00  0.00    +0.147 A 
ATOM      8  N   UNL     1      23.830   0.978  53.398  1.00  0.00    -0.218 NA
ATOM      9  C   UNL     1      24.537   2.040  52.995  1.00  0.00    +0.225 A 
ATOM     10  N   UNL     1      24.089   3.034  52.212  1.00  0.00    -0.230 NA
ATOM     11  C   UNL     1      22.800   2.930  51.783  1.00  0.00    +0.141 A 
ATOM     12  C   UNL     1      21.974   1.897  52.135  1.00  0.00    +0.062 A 
ENDROOT
BRANCH   1  13
ATOM     13  C   UNL     1      18.240   1.683  51.087  1.00  0.00    -0.025 A 
ATOM     14  C   UNL     1      16.589   0.274  49.984  1.00  0.00    -0.051 A 
ATOM     15  C   UNL     1      15.581   0.889  50.737  1.00  0.00    +0.003 A 
ATOM     16  C   UNL     1      17.919   0.673  50.172  1.00  0.00    +0.011 A 
ATOM     17  C   UNL     1      15.894   1.901  51.645  1.00  0.00    +0.001 A 
ATOM     18  C   UNL     1      17.220   2.301  51.817  1.00  0.00    +0.008 A 
ATOM     19  C   UNL     1      16.260  -0.843  49.039  1.00  0.00    +0.044 C 
ENDBRANCH   1  13
BRANCH  11  20
ATOM     20  C   UNL     1      22.364   3.990  50.840  1.00  0.00    +0.273 C 
ATOM     21  O   UNL     1      22.055   5.085  51.310  1.00  0.00    -0.267 OA
ATOM     22  N   UNL     1      22.302   3.702  49.475  1.00  0.00    -0.333 N 
ATOM     23  C   UNL     1      23.022   2.591  48.839  1.00  0.00    +0.148 C 
ATOM     24  C   UNL     1      21.960   4.797  48.564  1.00  0.00    +0.148 C 
ATOM     25  C   UNL     1      22.349   2.166  47.531  1.00  0.00    +0.181 C 
ATOM     26  C   UNL     1      21.342   4.278  47.264  1.00  0.00    +0.181 C 
ATOM     27  O   UNL     1      22.180   3.287  46.651  1.00  0.00    -0.378 OA
ENDBRANCH  11  20
TORSDOF 2
ENDMDL
