REMARK SMILES O=[N+]([O-])c1ccc(O)cc1-c1ccc(-c2cccc(Cl)c2)[nH]1
REMARK SMILES IDX 4 1 5 2 6 3 7 4 9 5 10 6 2 7 1 8 3 9 11 10 12 11 22 12 13 13
REMARK SMILES IDX 14 14 15 16 16 17 21 18 17 19 19 20 18 21 20 22 8 23
REMARK H PARENT 22 15 8 24
ROOT
ATOM      1  C   UNL     1       3.029  -1.177   0.387  1.00  0.00    +0.278 A 
ATOM      2  C   UNL     1       4.289  -0.989   0.969  1.00  0.00    +0.090 A 
ATOM      3  C   UNL     1       4.728   0.309   1.220  1.00  0.00    +0.053 A 
ATOM      4  C   UNL     1       3.913   1.388   0.887  1.00  0.00    +0.116 A 
ATOM      5  C   UNL     1       2.658   1.197   0.305  1.00  0.00    +0.063 A 
ATOM      6  C   UNL     1       2.194  -0.102   0.044  1.00  0.00    +0.079 A 
ENDROOT
BRANCH   1   7
ATOM      7  N   UNL     1       2.590  -2.540   0.178  1.00  0.00    +0.063 N 
ATOM      8  O   UNL     1       3.140  -3.171  -0.736  1.00  0.00    -0.258 OA
ATOM      9  O   UNL     1       1.737  -2.984   0.958  1.00  0.00    -0.258 OA
ENDBRANCH   1   7
BRANCH   6  10
ATOM     10  C   UNL     1       0.892  -0.269  -0.594  1.00  0.00    +0.053 A 
ATOM     11  C   UNL     1       0.557  -0.806  -1.822  1.00  0.00    +0.029 A 
ATOM     12  N   UNL     1      -0.287   0.102   0.014  1.00  0.00    -0.354 N 
ATOM     13  C   UNL     1      -0.851  -0.741  -1.951  1.00  0.00    +0.029 A 
ATOM     14  C   UNL     1      -1.365  -0.163  -0.803  1.00  0.00    +0.046 A 
ATOM     15  H   UNL     1      -0.357   0.476   0.950  1.00  0.00    +0.167 HD
BRANCH  14  16
ATOM     16  C   UNL     1      -2.749   0.117  -0.416  1.00  0.00    -0.001 A 
ATOM     17  C   UNL     1      -3.780  -0.750  -0.804  1.00  0.00    +0.010 A 
ATOM     18  C   UNL     1      -3.073   1.252   0.339  1.00  0.00    +0.030 A 
ATOM     19  C   UNL     1      -5.106  -0.497  -0.440  1.00  0.00    +0.002 A 
ATOM     20  C   UNL     1      -4.399   1.502   0.699  1.00  0.00    +0.041 A 
ATOM     21  C   UNL     1      -5.416   0.632   0.315  1.00  0.00    +0.020 A 
ATOM     22 Cl   UNL     1      -4.779   2.902   1.626  1.00  0.00    -0.084 Cl
ENDBRANCH  14  16
ENDBRANCH   6  10
BRANCH   4  23
ATOM     23  O   UNL     1       4.391   2.638   1.146  1.00  0.00    -0.508 OA
ATOM     24  H   UNL     1       3.759   3.299   0.818  1.00  0.00    +0.293 HD
ENDBRANCH   4  23
TORSDOF 4
