REMARK SMILES O=C(O)c1cc(O)c(O)c(N2CCN(C(=O)c3ccccn3)CC2)c1
REMARK SMILES IDX 4 1 5 2 6 3 8 4 10 5 25 6 2 7 1 8 3 9 7 11 11 13 12 14 24 15
REMARK SMILES IDX 13 16 23 17 14 18 15 19 16 20 17 21 18 22 22 23 19 24 21 25
REMARK SMILES IDX 20 26 9 27
REMARK H PARENT 3 10 7 12 9 28
ROOT
ATOM      1  C   UNL     1      -4.351  -0.591  -1.024  1.00  0.00    +0.065 A 
ATOM      2  C   UNL     1      -5.085   0.560  -0.737  1.00  0.00    +0.066 A 
ATOM      3  C   UNL     1      -4.447   1.600  -0.082  1.00  0.00    +0.160 A 
ATOM      4  C   UNL     1      -3.096   1.506   0.290  1.00  0.00    +0.181 A 
ATOM      5  C   UNL     1      -2.322   0.359   0.021  1.00  0.00    +0.084 A 
ATOM      6  C   UNL     1      -2.997  -0.681  -0.649  1.00  0.00    +0.045 A 
ENDROOT
BRANCH   1   7
ATOM      7  C   UNL     1      -4.959  -1.750  -1.721  1.00  0.00    +0.335 C 
ATOM      8  O   UNL     1      -4.392  -2.782  -2.025  1.00  0.00    -0.246 OA
BRANCH   7   9
ATOM      9  O   UNL     1      -6.260  -1.561  -2.007  1.00  0.00    -0.478 OA
ATOM     10  H   UNL     1      -6.521  -2.393  -2.455  1.00  0.00    +0.297 HD
ENDBRANCH   7   9
ENDBRANCH   1   7
BRANCH   3  11
ATOM     11  O   UNL     1      -5.105   2.765   0.221  1.00  0.00    -0.504 OA
ATOM     12  H   UNL     1      -6.024   2.688  -0.089  1.00  0.00    +0.293 HD
ENDBRANCH   3  11
BRANCH   5  13
ATOM     13  N   UNL     1      -0.986   0.221   0.374  1.00  0.00    -0.365 N 
ATOM     14  C   UNL     1      -0.410   0.989   1.494  1.00  0.00    +0.138 C 
ATOM     15  C   UNL     1      -0.095  -0.729  -0.311  1.00  0.00    +0.138 C 
ATOM     16  C   UNL     1       0.801   0.269   2.114  1.00  0.00    +0.141 C 
ATOM     17  C   UNL     1       1.384  -0.299  -0.233  1.00  0.00    +0.141 C 
ATOM     18  N   UNL     1       1.845  -0.042   1.137  1.00  0.00    -0.334 N 
ATOM     19  C   UNL     1       3.164  -0.150   1.579  1.00  0.00    +0.272 C 
ATOM     20  O   UNL     1       3.440  -0.127   2.782  1.00  0.00    -0.267 OA
BRANCH  19  21
ATOM     21  C   UNL     1       4.299  -0.299   0.604  1.00  0.00    +0.128 A 
ATOM     22  C   UNL     1       5.503  -0.831   1.060  1.00  0.00    +0.034 A 
ATOM     23  N   UNL     1       4.125   0.140  -0.671  1.00  0.00    -0.251 NA
ATOM     24  C   UNL     1       6.569  -0.936   0.171  1.00  0.00    +0.004 A 
ATOM     25  C   UNL     1       5.181   0.029  -1.507  1.00  0.00    +0.112 A 
ATOM     26  C   UNL     1       6.407  -0.498  -1.138  1.00  0.00    +0.020 A 
ENDBRANCH  19  21
ENDBRANCH   5  13
BRANCH   4  27
ATOM     27  O   UNL     1      -2.556   2.615   0.900  1.00  0.00    -0.503 OA
ATOM     28  H   UNL     1      -3.289   3.261   0.933  1.00  0.00    +0.293 HD
ENDBRANCH   4  27
TORSDOF 6
