REMARK SMILES O=[N+]([O-])c1cc(-c2cccc(Br)c2)ccc1O
REMARK SMILES IDX 4 1 5 2 6 3 14 4 15 5 16 6 2 7 1 8 3 9 17 10 7 12 8 13 13 14
REMARK SMILES IDX 9 15 11 16 10 17 12 18
REMARK H PARENT 17 11
ROOT
ATOM      1  C   UNL     1      -2.412   0.526   0.377  1.00  0.00    +0.311 A 
ATOM      2  C   UNL     1      -1.045   0.755   0.139  1.00  0.00    +0.098 A 
ATOM      3  C   UNL     1      -0.167  -0.317  -0.095  1.00  0.00    -0.011 A 
ATOM      4  C   UNL     1      -0.695  -1.619  -0.083  1.00  0.00    +0.013 A 
ATOM      5  C   UNL     1      -2.054  -1.847   0.154  1.00  0.00    +0.054 A 
ATOM      6  C   UNL     1      -2.918  -0.779   0.383  1.00  0.00    +0.194 A 
ENDROOT
BRANCH   1   7
ATOM      7  N   UNL     1      -3.288   1.675   0.615  1.00  0.00    +0.066 N 
ATOM      8  O   UNL     1      -2.780   2.804   0.629  1.00  0.00    -0.258 OA
ATOM      9  O   UNL     1      -4.496   1.446   0.793  1.00  0.00    -0.258 OA
ENDBRANCH   1   7
BRANCH   6  10
ATOM     10  O   UNL     1      -4.224  -1.123   0.601  1.00  0.00    -0.502 OA
ATOM     11  H   UNL     1      -4.764  -0.317   0.742  1.00  0.00    +0.293 HD
ENDBRANCH   6  10
BRANCH   3  12
ATOM     12  C   UNL     1       1.265  -0.084  -0.346  1.00  0.00    -0.017 A 
ATOM     13  C   UNL     1       1.895  -0.615  -1.486  1.00  0.00    +0.009 A 
ATOM     14  C   UNL     1       2.042   0.676   0.544  1.00  0.00    +0.024 A 
ATOM     15  C   UNL     1       3.253  -0.395  -1.730  1.00  0.00    +0.002 A 
ATOM     16  C   UNL     1       3.399   0.893   0.297  1.00  0.00    +0.018 A 
ATOM     17  C   UNL     1       4.008   0.361  -0.836  1.00  0.00    +0.016 A 
ATOM     18 Br   UNL     1       4.420   1.917   1.516  1.00  0.00    -0.051 Br
ENDBRANCH   3  12
TORSDOF 3
