REMARK SMILES CCNc1ccc(C/N=N/Nc2ccc3ncnc(-c4ccccc4)c3c2)[nH]1
REMARK SMILES IDX 8 1 7 2 4 3 5 4 28 5 6 6 3 8 2 10 1 11 9 12 10 13 11 14
REMARK SMILES IDX 12 16 13 17 27 18 14 19 26 20 15 21 19 22 16 23 18 24 17 25
REMARK SMILES IDX 20 26 21 27 25 28 22 29 24 30 23 31
REMARK H PARENT 28 7 3 9 11 15
ROOT
ATOM      1  C   UNL     1       2.991  -1.211   1.940  1.00  0.00    +0.222 C 
ENDROOT
BRANCH   1   2
ATOM      2  C   UNL     1       4.121  -1.314   0.974  1.00  0.00    +0.040 A 
ATOM      3  C   UNL     1       5.546  -0.606  -0.622  1.00  0.00    +0.103 A 
ATOM      4  C   UNL     1       5.879  -1.905  -0.313  1.00  0.00    +0.046 A 
ATOM      5  N   UNL     1       4.469  -0.264   0.154  1.00  0.00    -0.344 N 
ATOM      6  C   UNL     1       4.990  -2.351   0.697  1.00  0.00    +0.027 A 
ATOM      7  H   UNL     1       3.979   0.617   0.111  1.00  0.00    +0.168 HD
BRANCH   3   8
ATOM      8  N   UNL     1       6.099   0.236  -1.528  1.00  0.00    -0.372 N 
ATOM      9  H   UNL     1       6.975  -0.068  -1.952  1.00  0.00    +0.162 HD
BRANCH   8  10
ATOM     10  C   UNL     1       5.970   1.682  -1.423  1.00  0.00    +0.111 C 
ATOM     11  C   UNL     1       6.662   2.349  -2.600  1.00  0.00    +0.027 C 
ENDBRANCH   8  10
ENDBRANCH   3   8
ENDBRANCH   1   2
BRANCH   1  12
ATOM     12  N   UNL     1       1.778  -0.789   1.226  1.00  0.00    -0.165 NA
ATOM     13  N   UNL     1       0.859  -0.491   2.009  1.00  0.00    -0.074 NA
BRANCH  13  14
ATOM     14  N   UNL     1      -0.178  -0.134   1.229  1.00  0.00    -0.260 N 
ATOM     15  H   UNL     1      -0.111  -0.455   0.268  1.00  0.00    +0.192 HD
BRANCH  14  16
ATOM     16  C   UNL     1      -1.472  -0.128   1.777  1.00  0.00    +0.059 A 
ATOM     17  C   UNL     1      -1.710  -0.097   3.151  1.00  0.00    +0.030 A 
ATOM     18  C   UNL     1      -2.579  -0.027   0.927  1.00  0.00    +0.040 A 
ATOM     19  C   UNL     1      -3.016  -0.017   3.651  1.00  0.00    +0.031 A 
ATOM     20  C   UNL     1      -3.908   0.043   1.431  1.00  0.00    +0.029 A 
ATOM     21  C   UNL     1      -4.120   0.052   2.814  1.00  0.00    +0.074 A 
ATOM     22  C   UNL     1      -5.077   0.123   0.654  1.00  0.00    +0.081 A 
ATOM     23  N   UNL     1      -5.336   0.137   3.364  1.00  0.00    -0.236 NA
ATOM     24  N   UNL     1      -6.313   0.226   1.192  1.00  0.00    -0.236 NA
ATOM     25  C   UNL     1      -6.375   0.223   2.526  1.00  0.00    +0.223 A 
BRANCH  22  26
ATOM     26  C   UNL     1      -5.074   0.100  -0.817  1.00  0.00    +0.001 A 
ATOM     27  C   UNL     1      -5.444   1.240  -1.549  1.00  0.00    +0.010 A 
ATOM     28  C   UNL     1      -4.720  -1.060  -1.527  1.00  0.00    +0.010 A 
ATOM     29  C   UNL     1      -5.436   1.230  -2.946  1.00  0.00    +0.001 A 
ATOM     30  C   UNL     1      -4.713  -1.072  -2.924  1.00  0.00    +0.001 A 
ATOM     31  C   UNL     1      -5.067   0.074  -3.632  1.00  0.00    +0.000 A 
ENDBRANCH  22  26
ENDBRANCH  14  16
ENDBRANCH  13  14
ENDBRANCH   1  12
TORSDOF 7
