REMARK SMILES Cc1cccc(N(C(=O)c2ccccc2)c2[nH]c(C)cc2C)c1
REMARK SMILES IDX 7 1 6 2 2 3 3 4 23 5 4 6 5 7 1 8 8 9 9 10 10 11 11 12 15 13
REMARK SMILES IDX 12 14 14 15 13 16 16 17 17 18 21 19 18 20 20 21 22 23 19 24
REMARK H PARENT 17 22
ROOT
ATOM      1  N   UNL     1      -0.136  -0.492   0.386  1.00  0.00    -0.262 N 
ENDROOT
BRANCH   1   2
ATOM      2  C   UNL     1      -1.449  -1.077   0.498  1.00  0.00    +0.051 A 
ATOM      3  C   UNL     1      -3.146  -2.641  -0.337  1.00  0.00    -0.049 A 
ATOM      4  C   UNL     1      -4.024  -2.228   0.668  1.00  0.00    +0.003 A 
ATOM      5  C   UNL     1      -1.862  -2.074  -0.402  1.00  0.00    +0.030 A 
ATOM      6  C   UNL     1      -3.631  -1.257   1.584  1.00  0.00    +0.002 A 
ATOM      7  C   UNL     1      -2.357  -0.689   1.500  1.00  0.00    +0.027 A 
ATOM      8  C   UNL     1      -3.543  -3.723  -1.296  1.00  0.00    +0.044 C 
ENDBRANCH   1   2
BRANCH   1   9
ATOM      9  C   UNL     1       0.950  -1.259  -0.085  1.00  0.00    +0.263 C 
ATOM     10  O   UNL     1       0.999  -2.491  -0.049  1.00  0.00    -0.268 OA
BRANCH   9  11
ATOM     11  C   UNL     1       2.098  -0.580  -0.758  1.00  0.00    +0.040 A 
ATOM     12  C   UNL     1       1.915   0.522  -1.603  1.00  0.00    +0.014 A 
ATOM     13  C   UNL     1       3.379  -1.129  -0.607  1.00  0.00    +0.014 A 
ATOM     14  C   UNL     1       3.012   1.099  -2.248  1.00  0.00    +0.001 A 
ATOM     15  C   UNL     1       4.472  -0.551  -1.254  1.00  0.00    +0.001 A 
ATOM     16  C   UNL     1       4.288   0.566  -2.069  1.00  0.00    +0.000 A 
ENDBRANCH   9  11
ENDBRANCH   1   9
BRANCH   1  17
ATOM     17  C   UNL     1       0.055   0.798   0.901  1.00  0.00    +0.120 A 
ATOM     18  N   UNL     1      -0.868   1.795   0.656  1.00  0.00    -0.345 N 
ATOM     19  C   UNL     1       1.078   1.367   1.652  1.00  0.00    -0.008 A 
ATOM     20  C   UNL     1      -0.449   2.986   1.189  1.00  0.00    +0.014 A 
ATOM     21  C   UNL     1       0.756   2.748   1.811  1.00  0.00    +0.028 A 
ATOM     22  H   UNL     1      -1.717   1.659   0.124  1.00  0.00    +0.168 HD
ATOM     23  C   UNL     1       2.270   0.711   2.256  1.00  0.00    +0.048 C 
ATOM     24  C   UNL     1      -1.243   4.231   1.049  1.00  0.00    +0.064 C 
ENDBRANCH   1  17
TORSDOF 4
