MODEL 1
REMARK VINA RESULT:    -8.586      0.000      0.000
REMARK INTER + INTRA:         -10.539
REMARK INTER:                 -10.343
REMARK INTRA:                  -0.196
REMARK UNBOUND:                -0.196
REMARK SMILES Cc1[nH]c(C=C(N)C(C#N)=C(C#N)C#N)c(C)c1-c1cccc(Cl)c1
REMARK SMILES IDX 1 1 2 2 3 3 4 4 16 5 17 6 18 7 19 9 20 10 25 11 21 12 23 13
REMARK SMILES IDX 22 14 24 15 5 16 6 17 7 18 8 21 9 22 11 23 10 24 12 25 14 26
REMARK SMILES IDX 13 27 15 28
REMARK H PARENT 3 8 7 19 7 20
ROOT
ATOM      1  C   UNL     1      21.101   0.967  49.737  1.00  0.00    +0.065 C 
ATOM      2  C   UNL     1      21.518   0.806  51.156  1.00  0.00    +0.020 A 
ATOM      3  N   UNL     1      22.793   1.117  51.562  1.00  0.00    -0.358 N 
ATOM      4  C   UNL     1      22.919   0.934  52.916  1.00  0.00    +0.044 A 
ATOM      5  C   UNL     1      21.717   0.432  53.391  1.00  0.00    -0.018 A 
ATOM      6  C   UNL     1      21.405   0.023  54.792  1.00  0.00    +0.047 C 
ATOM      7  C   UNL     1      20.827   0.362  52.271  1.00  0.00    +0.006 A 
ATOM      8  H   UNL     1      23.519   1.471  50.952  1.00  0.00    +0.166 HD
ENDROOT
BRANCH   7   9
ATOM      9  C   UNL     1      19.441  -0.069  52.234  1.00  0.00    -0.015 A 
ATOM     10  C   UNL     1      18.480   0.691  51.557  1.00  0.00    +0.009 A 
ATOM     11  C   UNL     1      19.063  -1.258  52.868  1.00  0.00    +0.029 A 
ATOM     12  C   UNL     1      17.149   0.271  51.517  1.00  0.00    +0.002 A 
ATOM     13  C   UNL     1      17.733  -1.671  52.824  1.00  0.00    +0.041 A 
ATOM     14  C   UNL     1      16.775  -0.913  52.152  1.00  0.00    +0.020 A 
ATOM     15 Cl   UNL     1      17.268  -3.131  53.607  1.00  0.00    -0.084 Cl
ENDBRANCH   7   9
BRANCH   4  16
ATOM     16  C   UNL     1      24.170   1.244  53.506  1.00  0.00    +0.053 C 
ATOM     17  C   UNL     1      25.220   0.395  53.477  1.00  0.00    +0.054 C 
BRANCH  17  18
ATOM     18  N   UNL     1      25.214  -0.863  52.897  1.00  0.00    -0.398 N 
ATOM     19  H   UNL     1      25.624  -1.570  53.513  1.00  0.00    +0.156 HD
ATOM     20  H   UNL     1      25.657  -0.902  51.982  1.00  0.00    +0.156 HD
ENDBRANCH  17  18
BRANCH  17  21
ATOM     21  C   UNL     1      26.491   0.825  54.070  1.00  0.00    +0.103 C 
ATOM     22  C   UNL     1      26.768   0.334  55.386  1.00  0.00    +0.103 C 
ATOM     23  C   UNL     1      27.356   1.640  53.426  1.00  0.00    +0.149 C 
ATOM     24  N   UNL     1      26.978  -0.063  56.454  1.00  0.00    -0.192 NA
ATOM     25  C   UNL     1      27.071   2.158  52.129  1.00  0.00    +0.112 C 
ATOM     26  C   UNL     1      28.588   2.035  54.022  1.00  0.00    +0.112 C 
ATOM     27  N   UNL     1      26.857   2.610  51.082  1.00  0.00    -0.192 NA
ATOM     28  N   UNL     1      29.588   2.351  54.517  1.00  0.00    -0.192 NA
ENDBRANCH  17  21
ENDBRANCH   4  16
TORSDOF 4
ENDMDL
MODEL 2
REMARK VINA RESULT:    -8.436      4.121      8.336
REMARK INTER + INTRA:         -10.358
REMARK INTER:                  -9.660
REMARK INTRA:                  -0.698
REMARK UNBOUND:                -0.196
REMARK SMILES Cc1[nH]c(C=C(N)C(C#N)=C(C#N)C#N)c(C)c1-c1cccc(Cl)c1
REMARK SMILES IDX 1 1 2 2 3 3 4 4 16 5 17 6 18 7 19 9 20 10 25 11 21 12 23 13
REMARK SMILES IDX 22 14 24 15 5 16 6 17 7 18 8 21 9 22 11 23 10 24 12 25 14 26
REMARK SMILES IDX 13 27 15 28
REMARK H PARENT 3 8 7 19 7 20
ROOT
ATOM      1  C   UNL     1      26.318   2.146  52.776  1.00  0.00    +0.065 C 
ATOM      2  C   UNL     1      25.062   2.035  51.987  1.00  0.00    +0.020 A 
ATOM      3  N   UNL     1      24.084   1.134  52.332  1.00  0.00    -0.358 N 
ATOM      4  C   UNL     1      23.007   1.255  51.490  1.00  0.00    +0.044 A 
ATOM      5  C   UNL     1      23.318   2.213  50.537  1.00  0.00    -0.018 A 
ATOM      6  C   UNL     1      22.475   2.636  49.381  1.00  0.00    +0.047 C 
ATOM      7  C   UNL     1      24.620   2.712  50.863  1.00  0.00    +0.006 A 
ATOM      8  H   UNL     1      24.138   0.503  53.121  1.00  0.00    +0.166 HD
ENDROOT
BRANCH   7   9
ATOM      9  C   UNL     1      25.392   3.746  50.197  1.00  0.00    -0.015 A 
ATOM     10  C   UNL     1      26.538   3.414  49.464  1.00  0.00    +0.009 A 
ATOM     11  C   UNL     1      24.983   5.082  50.275  1.00  0.00    +0.029 A 
ATOM     12  C   UNL     1      27.274   4.410  48.818  1.00  0.00    +0.002 A 
ATOM     13  C   UNL     1      25.723   6.070  49.629  1.00  0.00    +0.041 A 
ATOM     14  C   UNL     1      26.866   5.740  48.901  1.00  0.00    +0.020 A 
ATOM     15 Cl   UNL     1      25.221   7.713  49.729  1.00  0.00    -0.084 Cl
ENDBRANCH   7   9
BRANCH   4  16
ATOM     16  C   UNL     1      21.890   0.416  51.729  1.00  0.00    +0.053 C 
ATOM     17  C   UNL     1      20.768   0.851  52.340  1.00  0.00    +0.054 C 
BRANCH  17  18
ATOM     18  N   UNL     1      20.566   2.136  52.817  1.00  0.00    -0.398 N 
ATOM     19  H   UNL     1      19.792   2.180  53.484  1.00  0.00    +0.156 HD
ATOM     20  H   UNL     1      20.435   2.836  52.090  1.00  0.00    +0.156 HD
ENDBRANCH  17  18
BRANCH  17  21
ATOM     21  C   UNL     1      19.643  -0.077  52.497  1.00  0.00    +0.103 C 
ATOM     22  C   UNL     1      18.525   0.139  51.629  1.00  0.00    +0.103 C 
ATOM     23  C   UNL     1      19.644  -1.077  53.406  1.00  0.00    +0.149 C 
ATOM     24  N   UNL     1      17.623   0.329  50.927  1.00  0.00    -0.192 NA
ATOM     25  C   UNL     1      20.741  -1.277  54.296  1.00  0.00    +0.112 C 
ATOM     26  C   UNL     1      18.541  -1.969  53.532  1.00  0.00    +0.112 C 
ATOM     27  N   UNL     1      21.610  -1.452  55.045  1.00  0.00    -0.192 NA
ATOM     28  N   UNL     1      17.637  -2.689  53.626  1.00  0.00    -0.192 NA
ENDBRANCH  17  21
ENDBRANCH   4  16
TORSDOF 4
ENDMDL
MODEL 3
REMARK VINA RESULT:    -8.235      4.262      8.350
REMARK INTER + INTRA:         -10.116
REMARK INTER:                  -9.504
REMARK INTRA:                  -0.612
REMARK UNBOUND:                -0.196
REMARK SMILES Cc1[nH]c(C=C(N)C(C#N)=C(C#N)C#N)c(C)c1-c1cccc(Cl)c1
REMARK SMILES IDX 1 1 2 2 3 3 4 4 16 5 17 6 18 7 19 9 20 10 25 11 21 12 23 13
REMARK SMILES IDX 22 14 24 15 5 16 6 17 7 18 8 21 9 22 11 23 10 24 12 25 14 26
REMARK SMILES IDX 13 27 15 28
REMARK H PARENT 3 8 7 19 7 20
ROOT
ATOM      1  C   UNL     1      24.223  -0.491  53.933  1.00  0.00    +0.065 C 
ATOM      2  C   UNL     1      24.517   0.541  52.903  1.00  0.00    +0.020 A 
ATOM      3  N   UNL     1      23.506   1.170  52.219  1.00  0.00    -0.358 N 
ATOM      4  C   UNL     1      24.023   2.112  51.365  1.00  0.00    +0.044 A 
ATOM      5  C   UNL     1      25.405   2.051  51.451  1.00  0.00    -0.018 A 
ATOM      6  C   UNL     1      26.390   2.846  50.661  1.00  0.00    +0.047 C 
ATOM      7  C   UNL     1      25.714   1.059  52.437  1.00  0.00    +0.006 A 
ATOM      8  H   UNL     1      22.520   0.989  52.358  1.00  0.00    +0.166 HD
ENDROOT
BRANCH   7   9
ATOM      9  C   UNL     1      27.014   0.631  52.922  1.00  0.00    -0.015 A 
ATOM     10  C   UNL     1      27.891   1.551  53.508  1.00  0.00    +0.009 A 
ATOM     11  C   UNL     1      27.389  -0.713  52.816  1.00  0.00    +0.029 A 
ATOM     12  C   UNL     1      29.137   1.134  53.981  1.00  0.00    +0.002 A 
ATOM     13  C   UNL     1      28.635  -1.122  53.289  1.00  0.00    +0.041 A 
ATOM     14  C   UNL     1      29.510  -0.205  53.870  1.00  0.00    +0.020 A 
ATOM     15 Cl   UNL     1      29.097  -2.774  53.155  1.00  0.00    -0.084 Cl
ENDBRANCH   7   9
BRANCH   4  16
ATOM     16  C   UNL     1      23.107   2.879  50.602  1.00  0.00    +0.053 C 
ATOM     17  C   UNL     1      22.640   4.077  51.012  1.00  0.00    +0.054 C 
BRANCH  17  18
ATOM     18  N   UNL     1      22.970   4.697  52.206  1.00  0.00    -0.398 N 
ATOM     19  H   UNL     1      22.468   5.580  52.331  1.00  0.00    +0.156 HD
ATOM     20  H   UNL     1      23.968   4.844  52.338  1.00  0.00    +0.156 HD
ENDBRANCH  17  18
BRANCH  17  21
ATOM     21  C   UNL     1      21.735   4.822  50.130  1.00  0.00    +0.103 C 
ATOM     22  C   UNL     1      22.359   5.609  49.110  1.00  0.00    +0.103 C 
ATOM     23  C   UNL     1      20.390   4.783  50.264  1.00  0.00    +0.149 C 
ATOM     24  N   UNL     1      22.876   6.249  48.293  1.00  0.00    -0.192 NA
ATOM     25  C   UNL     1      19.764   4.028  51.298  1.00  0.00    +0.112 C 
ATOM     26  C   UNL     1      19.535   5.511  49.388  1.00  0.00    +0.112 C 
ATOM     27  N   UNL     1      19.227   3.437  52.141  1.00  0.00    -0.192 NA
ATOM     28  N   UNL     1      18.847   6.108  48.670  1.00  0.00    -0.192 NA
ENDBRANCH  17  21
ENDBRANCH   4  16
TORSDOF 4
ENDMDL
MODEL 4
REMARK VINA RESULT:    -8.112      4.998      8.389
REMARK INTER + INTRA:          -9.969
REMARK INTER:                  -9.893
REMARK INTRA:                  -0.076
REMARK UNBOUND:                -0.196
REMARK SMILES Cc1[nH]c(C=C(N)C(C#N)=C(C#N)C#N)c(C)c1-c1cccc(Cl)c1
REMARK SMILES IDX 1 1 2 2 3 3 4 4 16 5 17 6 18 7 19 9 20 10 25 11 21 12 23 13
REMARK SMILES IDX 22 14 24 15 5 16 6 17 7 18 8 21 9 22 11 23 10 24 12 25 14 26
REMARK SMILES IDX 13 27 15 28
REMARK H PARENT 3 8 7 19 7 20
ROOT
ATOM      1  C   UNL     1      23.526   5.854  48.118  1.00  0.00    +0.065 C 
ATOM      2  C   UNL     1      24.107   4.819  49.015  1.00  0.00    +0.020 A 
ATOM      3  N   UNL     1      23.308   3.899  49.650  1.00  0.00    -0.358 N 
ATOM      4  C   UNL     1      24.076   3.023  50.376  1.00  0.00    +0.044 A 
ATOM      5  C   UNL     1      25.399   3.422  50.261  1.00  0.00    -0.018 A 
ATOM      6  C   UNL     1      26.583   2.806  50.929  1.00  0.00    +0.047 C 
ATOM      7  C   UNL     1      25.415   4.556  49.388  1.00  0.00    +0.006 A 
ATOM      8  H   UNL     1      22.302   3.853  49.558  1.00  0.00    +0.166 HD
ENDROOT
BRANCH   7   9
ATOM      9  C   UNL     1      26.551   5.330  48.921  1.00  0.00    -0.015 A 
ATOM     10  C   UNL     1      27.757   4.697  48.598  1.00  0.00    +0.009 A 
ATOM     11  C   UNL     1      26.437   6.718  48.777  1.00  0.00    +0.029 A 
ATOM     12  C   UNL     1      28.846   5.444  48.142  1.00  0.00    +0.002 A 
ATOM     13  C   UNL     1      27.527   7.457  48.322  1.00  0.00    +0.041 A 
ATOM     14  C   UNL     1      28.730   6.827  48.004  1.00  0.00    +0.020 A 
ATOM     15 Cl   UNL     1      27.388   9.163  48.150  1.00  0.00    -0.084 Cl
ENDBRANCH   7   9
BRANCH   4  16
ATOM     16  C   UNL     1      23.407   1.985  51.070  1.00  0.00    +0.053 C 
ATOM     17  C   UNL     1      23.296   1.960  52.416  1.00  0.00    +0.054 C 
BRANCH  17  18
ATOM     18  N   UNL     1      23.819   2.910  53.277  1.00  0.00    -0.398 N 
ATOM     19  H   UNL     1      23.189   3.106  54.060  1.00  0.00    +0.156 HD
ATOM     20  H   UNL     1      24.088   3.781  52.825  1.00  0.00    +0.156 HD
ENDBRANCH  17  18
BRANCH  17  21
ATOM     21  C   UNL     1      22.539   0.870  53.042  1.00  0.00    +0.103 C 
ATOM     22  C   UNL     1      21.114   0.965  52.956  1.00  0.00    +0.103 C 
ATOM     23  C   UNL     1      23.138  -0.165  53.673  1.00  0.00    +0.149 C 
ATOM     24  N   UNL     1      19.960   1.058  52.887  1.00  0.00    -0.192 NA
ATOM     25  C   UNL     1      24.557  -0.248  53.790  1.00  0.00    +0.112 C 
ATOM     26  C   UNL     1      22.379  -1.213  54.266  1.00  0.00    +0.112 C 
ATOM     27  N   UNL     1      25.707  -0.333  53.918  1.00  0.00    -0.192 NA
ATOM     28  N   UNL     1      21.751  -2.062  54.746  1.00  0.00    -0.192 NA
ENDBRANCH  17  21
ENDBRANCH   4  16
TORSDOF 4
ENDMDL
MODEL 5
REMARK VINA RESULT:    -8.108      4.723      7.950
REMARK INTER + INTRA:          -9.964
REMARK INTER:                  -9.688
REMARK INTRA:                  -0.276
REMARK UNBOUND:                -0.196
REMARK SMILES Cc1[nH]c(C=C(N)C(C#N)=C(C#N)C#N)c(C)c1-c1cccc(Cl)c1
REMARK SMILES IDX 1 1 2 2 3 3 4 4 16 5 17 6 18 7 19 9 20 10 25 11 21 12 23 13
REMARK SMILES IDX 22 14 24 15 5 16 6 17 7 18 8 21 9 22 11 23 10 24 12 25 14 26
REMARK SMILES IDX 13 27 15 28
REMARK H PARENT 3 8 7 19 7 20
ROOT
ATOM      1  C   UNL     1      23.459  -0.278  53.680  1.00  0.00    +0.065 C 
ATOM      2  C   UNL     1      24.070   0.743  52.787  1.00  0.00    +0.020 A 
ATOM      3  N   UNL     1      23.341   1.815  52.331  1.00  0.00    -0.358 N 
ATOM      4  C   UNL     1      24.133   2.639  51.571  1.00  0.00    +0.044 A 
ATOM      5  C   UNL     1      25.388   2.057  51.479  1.00  0.00    -0.018 A 
ATOM      6  C   UNL     1      26.558   2.562  50.703  1.00  0.00    +0.047 C 
ATOM      7  C   UNL     1      25.346   0.859  52.261  1.00  0.00    +0.006 A 
ATOM      8  H   UNL     1      22.371   1.988  52.560  1.00  0.00    +0.166 HD
ENDROOT
BRANCH   7   9
ATOM      9  C   UNL     1      26.405  -0.101  52.517  1.00  0.00    -0.015 A 
ATOM     10  C   UNL     1      26.215  -1.460  52.239  1.00  0.00    +0.009 A 
ATOM     11  C   UNL     1      27.631   0.335  53.031  1.00  0.00    +0.029 A 
ATOM     12  C   UNL     1      27.238  -2.379  52.478  1.00  0.00    +0.002 A 
ATOM     13  C   UNL     1      28.649  -0.587  53.268  1.00  0.00    +0.041 A 
ATOM     14  C   UNL     1      28.458  -1.941  52.994  1.00  0.00    +0.020 A 
ATOM     15 Cl   UNL     1      30.155  -0.051  53.904  1.00  0.00    -0.084 Cl
ENDBRANCH   7   9
BRANCH   4  16
ATOM     16  C   UNL     1      23.541   3.815  51.046  1.00  0.00    +0.053 C 
ATOM     17  C   UNL     1      23.445   4.961  51.754  1.00  0.00    +0.054 C 
BRANCH  17  18
ATOM     18  N   UNL     1      23.884   5.134  53.056  1.00  0.00    -0.398 N 
ATOM     19  H   UNL     1      23.582   4.371  53.667  1.00  0.00    +0.156 HD
ATOM     20  H   UNL     1      23.626   6.029  53.468  1.00  0.00    +0.156 HD
ENDBRANCH  17  18
BRANCH  17  21
ATOM     21  C   UNL     1      22.864   6.143  51.108  1.00  0.00    +0.103 C 
ATOM     22  C   UNL     1      23.759   7.236  50.877  1.00  0.00    +0.103 C 
ATOM     23  C   UNL     1      21.561   6.214  50.754  1.00  0.00    +0.149 C 
ATOM     24  N   UNL     1      24.491   8.118  50.703  1.00  0.00    -0.192 NA
ATOM     25  C   UNL     1      20.657   5.142  51.011  1.00  0.00    +0.112 C 
ATOM     26  C   UNL     1      21.025   7.372  50.122  1.00  0.00    +0.112 C 
ATOM     27  N   UNL     1      19.895   4.293  51.225  1.00  0.00    -0.192 NA
ATOM     28  N   UNL     1      20.599   8.320  49.608  1.00  0.00    -0.192 NA
ENDBRANCH  17  21
ENDBRANCH   4  16
TORSDOF 4
ENDMDL
MODEL 6
REMARK VINA RESULT:    -7.915      5.240      8.017
REMARK INTER + INTRA:          -9.731
REMARK INTER:                  -8.884
REMARK INTRA:                  -0.847
REMARK UNBOUND:                -0.196
REMARK SMILES Cc1[nH]c(C=C(N)C(C#N)=C(C#N)C#N)c(C)c1-c1cccc(Cl)c1
REMARK SMILES IDX 1 1 2 2 3 3 4 4 16 5 17 6 18 7 19 9 20 10 25 11 21 12 23 13
REMARK SMILES IDX 22 14 24 15 5 16 6 17 7 18 8 21 9 22 11 23 10 24 12 25 14 26
REMARK SMILES IDX 13 27 15 28
REMARK H PARENT 3 8 7 19 7 20
ROOT
ATOM      1  C   UNL     1      27.773   4.750  48.646  1.00  0.00    +0.065 C 
ATOM      2  C   UNL     1      26.519   4.503  49.407  1.00  0.00    +0.020 A 
ATOM      3  N   UNL     1      26.251   3.271  49.954  1.00  0.00    -0.358 N 
ATOM      4  C   UNL     1      25.067   3.306  50.646  1.00  0.00    +0.044 A 
ATOM      5  C   UNL     1      24.522   4.572  50.493  1.00  0.00    -0.018 A 
ATOM      6  C   UNL     1      23.211   5.055  51.019  1.00  0.00    +0.047 C 
ATOM      7  C   UNL     1      25.453   5.331  49.714  1.00  0.00    +0.006 A 
ATOM      8  H   UNL     1      26.864   2.469  49.887  1.00  0.00    +0.166 HD
ENDROOT
BRANCH   7   9
ATOM      9  C   UNL     1      25.372   6.719  49.296  1.00  0.00    -0.015 A 
ATOM     10  C   UNL     1      25.791   7.744  50.153  1.00  0.00    +0.009 A 
ATOM     11  C   UNL     1      24.885   7.037  48.023  1.00  0.00    +0.029 A 
ATOM     12  C   UNL     1      25.719   9.078  49.746  1.00  0.00    +0.002 A 
ATOM     13  C   UNL     1      24.816   8.370  47.623  1.00  0.00    +0.041 A 
ATOM     14  C   UNL     1      25.230   9.391  48.478  1.00  0.00    +0.020 A 
ATOM     15 Cl   UNL     1      24.213   8.760  46.059  1.00  0.00    -0.084 Cl
ENDBRANCH   7   9
BRANCH   4  16
ATOM     16  C   UNL     1      24.656   2.119  51.303  1.00  0.00    +0.053 C 
ATOM     17  C   UNL     1      24.659   1.991  52.647  1.00  0.00    +0.054 C 
BRANCH  17  18
ATOM     18  N   UNL     1      25.065   2.968  53.542  1.00  0.00    -0.398 N 
ATOM     19  H   UNL     1      25.204   3.873  53.084  1.00  0.00    +0.156 HD
ATOM     20  H   UNL     1      25.894   2.722  54.080  1.00  0.00    +0.156 HD
ENDBRANCH  17  18
BRANCH  17  21
ATOM     21  C   UNL     1      24.166   0.742  53.239  1.00  0.00    +0.103 C 
ATOM     22  C   UNL     1      25.167  -0.181  53.681  1.00  0.00    +0.103 C 
ATOM     23  C   UNL     1      22.849   0.463  53.360  1.00  0.00    +0.149 C 
ATOM     24  N   UNL     1      25.987  -0.924  54.028  1.00  0.00    -0.192 NA
ATOM     25  C   UNL     1      21.848   1.363  52.892  1.00  0.00    +0.112 C 
ATOM     26  C   UNL     1      22.399  -0.755  53.945  1.00  0.00    +0.112 C 
ATOM     27  N   UNL     1      21.012   2.068  52.503  1.00  0.00    -0.192 NA
ATOM     28  N   UNL     1      22.043  -1.750  54.423  1.00  0.00    -0.192 NA
ENDBRANCH  17  21
ENDBRANCH   4  16
TORSDOF 4
ENDMDL
MODEL 7
REMARK VINA RESULT:    -7.864      3.341      8.229
REMARK INTER + INTRA:          -9.670
REMARK INTER:                  -8.999
REMARK INTRA:                  -0.670
REMARK UNBOUND:                -0.196
REMARK SMILES Cc1[nH]c(C=C(N)C(C#N)=C(C#N)C#N)c(C)c1-c1cccc(Cl)c1
REMARK SMILES IDX 1 1 2 2 3 3 4 4 16 5 17 6 18 7 19 9 20 10 25 11 21 12 23 13
REMARK SMILES IDX 22 14 24 15 5 16 6 17 7 18 8 21 9 22 11 23 10 24 12 25 14 26
REMARK SMILES IDX 13 27 15 28
REMARK H PARENT 3 8 7 19 7 20
ROOT
ATOM      1  C   UNL     1      26.242   2.934  50.648  1.00  0.00    +0.065 C 
ATOM      2  C   UNL     1      25.166   2.222  51.388  1.00  0.00    +0.020 A 
ATOM      3  N   UNL     1      23.841   2.491  51.147  1.00  0.00    -0.358 N 
ATOM      4  C   UNL     1      23.043   1.676  51.911  1.00  0.00    +0.044 A 
ATOM      5  C   UNL     1      23.869   0.903  52.712  1.00  0.00    -0.018 A 
ATOM      6  C   UNL     1      23.446  -0.085  53.748  1.00  0.00    +0.047 C 
ATOM      7  C   UNL     1      25.216   1.246  52.369  1.00  0.00    +0.006 A 
ATOM      8  H   UNL     1      23.506   3.166  50.471  1.00  0.00    +0.166 HD
ENDROOT
BRANCH   7   9
ATOM      9  C   UNL     1      26.456   0.705  52.897  1.00  0.00    -0.015 A 
ATOM     10  C   UNL     1      27.304   1.503  53.675  1.00  0.00    +0.009 A 
ATOM     11  C   UNL     1      26.802  -0.626  52.638  1.00  0.00    +0.029 A 
ATOM     12  C   UNL     1      28.492   0.978  54.187  1.00  0.00    +0.002 A 
ATOM     13  C   UNL     1      27.990  -1.143  53.152  1.00  0.00    +0.041 A 
ATOM     14  C   UNL     1      28.836  -0.348  53.924  1.00  0.00    +0.020 A 
ATOM     15 Cl   UNL     1      28.417  -2.779  52.830  1.00  0.00    -0.084 Cl
ENDBRANCH   7   9
BRANCH   4  16
ATOM     16  C   UNL     1      21.639   1.802  51.758  1.00  0.00    +0.053 C 
ATOM     17  C   UNL     1      20.950   1.162  50.790  1.00  0.00    +0.054 C 
BRANCH  17  18
ATOM     18  N   UNL     1      21.505   0.329  49.832  1.00  0.00    -0.398 N 
ATOM     19  H   UNL     1      21.268   0.627  48.882  1.00  0.00    +0.156 HD
ATOM     20  H   UNL     1      21.278  -0.656  49.953  1.00  0.00    +0.156 HD
ENDBRANCH  17  18
BRANCH  17  21
ATOM     21  C   UNL     1      19.491   1.313  50.744  1.00  0.00    +0.103 C 
ATOM     22  C   UNL     1      18.984   2.205  49.746  1.00  0.00    +0.103 C 
ATOM     23  C   UNL     1      18.664   0.660  51.590  1.00  0.00    +0.149 C 
ATOM     24  N   UNL     1      18.585   2.937  48.940  1.00  0.00    -0.192 NA
ATOM     25  C   UNL     1      19.165  -0.205  52.607  1.00  0.00    +0.112 C 
ATOM     26  C   UNL     1      17.251   0.819  51.518  1.00  0.00    +0.112 C 
ATOM     27  N   UNL     1      19.545  -0.900  53.455  1.00  0.00    -0.192 NA
ATOM     28  N   UNL     1      16.101   0.957  51.450  1.00  0.00    -0.192 NA
ENDBRANCH  17  21
ENDBRANCH   4  16
TORSDOF 4
ENDMDL
MODEL 8
REMARK VINA RESULT:    -7.859      3.679      8.183
REMARK INTER + INTRA:          -9.663
REMARK INTER:                  -9.083
REMARK INTRA:                  -0.580
REMARK UNBOUND:                -0.196
REMARK SMILES Cc1[nH]c(C=C(N)C(C#N)=C(C#N)C#N)c(C)c1-c1cccc(Cl)c1
REMARK SMILES IDX 1 1 2 2 3 3 4 4 16 5 17 6 18 7 19 9 20 10 25 11 21 12 23 13
REMARK SMILES IDX 22 14 24 15 5 16 6 17 7 18 8 21 9 22 11 23 10 24 12 25 14 26
REMARK SMILES IDX 13 27 15 28
REMARK H PARENT 3 8 7 19 7 20
ROOT
ATOM      1  C   UNL     1      25.507   2.512  50.918  1.00  0.00    +0.065 C 
ATOM      2  C   UNL     1      24.602   1.699  51.773  1.00  0.00    +0.020 A 
ATOM      3  N   UNL     1      23.243   1.897  51.760  1.00  0.00    -0.358 N 
ATOM      4  C   UNL     1      22.622   0.997  52.589  1.00  0.00    +0.044 A 
ATOM      5  C   UNL     1      23.606   0.238  53.205  1.00  0.00    -0.018 A 
ATOM      6  C   UNL     1      23.408  -0.825  54.233  1.00  0.00    +0.047 C 
ATOM      7  C   UNL     1      24.860   0.680  52.675  1.00  0.00    +0.006 A 
ATOM      8  H   UNL     1      22.769   2.583  51.186  1.00  0.00    +0.166 HD
ENDROOT
BRANCH   7   9
ATOM      9  C   UNL     1      26.196   0.192  52.969  1.00  0.00    -0.015 A 
ATOM     10  C   UNL     1      26.574  -1.105  52.599  1.00  0.00    +0.009 A 
ATOM     11  C   UNL     1      27.117   1.024  53.613  1.00  0.00    +0.029 A 
ATOM     12  C   UNL     1      27.862  -1.570  52.876  1.00  0.00    +0.002 A 
ATOM     13  C   UNL     1      28.401   0.554  53.886  1.00  0.00    +0.041 A 
ATOM     14  C   UNL     1      28.777  -0.738  53.521  1.00  0.00    +0.020 A 
ATOM     15 Cl   UNL     1      29.532   1.578  54.682  1.00  0.00    -0.084 Cl
ENDBRANCH   7   9
BRANCH   4  16
ATOM     16  C   UNL     1      21.208   1.044  52.667  1.00  0.00    +0.053 C 
ATOM     17  C   UNL     1      20.409   0.674  51.643  1.00  0.00    +0.054 C 
BRANCH  17  18
ATOM     18  N   UNL     1      20.848   0.226  50.409  1.00  0.00    -0.398 N 
ATOM     19  H   UNL     1      20.084  -0.157  49.846  1.00  0.00    +0.156 HD
ATOM     20  H   UNL     1      21.613  -0.445  50.456  1.00  0.00    +0.156 HD
ENDBRANCH  17  18
BRANCH  17  21
ATOM     21  C   UNL     1      18.954   0.707  51.835  1.00  0.00    +0.103 C 
ATOM     22  C   UNL     1      18.376  -0.449  52.451  1.00  0.00    +0.103 C 
ATOM     23  C   UNL     1      18.192   1.756  51.452  1.00  0.00    +0.149 C 
ATOM     24  N   UNL     1      17.918  -1.393  52.943  1.00  0.00    -0.192 NA
ATOM     25  C   UNL     1      18.758   2.895  50.809  1.00  0.00    +0.112 C 
ATOM     26  C   UNL     1      16.783   1.764  51.657  1.00  0.00    +0.112 C 
ATOM     27  N   UNL     1      19.188   3.827  50.266  1.00  0.00    -0.192 NA
ATOM     28  N   UNL     1      15.636   1.761  51.829  1.00  0.00    -0.192 NA
ENDBRANCH  17  21
ENDBRANCH   4  16
TORSDOF 4
ENDMDL
MODEL 9
REMARK VINA RESULT:    -7.806      4.378      8.136
REMARK INTER + INTRA:          -9.600
REMARK INTER:                  -8.804
REMARK INTRA:                  -0.796
REMARK UNBOUND:                -0.196
REMARK SMILES Cc1[nH]c(C=C(N)C(C#N)=C(C#N)C#N)c(C)c1-c1cccc(Cl)c1
REMARK SMILES IDX 1 1 2 2 3 3 4 4 16 5 17 6 18 7 19 9 20 10 25 11 21 12 23 13
REMARK SMILES IDX 22 14 24 15 5 16 6 17 7 18 8 21 9 22 11 23 10 24 12 25 14 26
REMARK SMILES IDX 13 27 15 28
REMARK H PARENT 3 8 7 19 7 20
ROOT
ATOM      1  C   UNL     1      24.172  -0.889  54.596  1.00  0.00    +0.065 C 
ATOM      2  C   UNL     1      24.245   0.109  53.495  1.00  0.00    +0.020 A 
ATOM      3  N   UNL     1      23.106   0.635  52.936  1.00  0.00    -0.358 N 
ATOM      4  C   UNL     1      23.430   1.566  51.982  1.00  0.00    +0.044 A 
ATOM      5  C   UNL     1      24.812   1.600  51.873  1.00  0.00    -0.018 A 
ATOM      6  C   UNL     1      25.618   2.419  50.921  1.00  0.00    +0.047 C 
ATOM      7  C   UNL     1      25.325   0.681  52.843  1.00  0.00    +0.006 A 
ATOM      8  H   UNL     1      22.164   0.397  53.221  1.00  0.00    +0.166 HD
ENDROOT
BRANCH   7   9
ATOM      9  C   UNL     1      26.707   0.363  53.156  1.00  0.00    -0.015 A 
ATOM     10  C   UNL     1      27.233  -0.897  52.847  1.00  0.00    +0.009 A 
ATOM     11  C   UNL     1      27.525   1.326  53.757  1.00  0.00    +0.029 A 
ATOM     12  C   UNL     1      28.565  -1.197  53.142  1.00  0.00    +0.002 A 
ATOM     13  C   UNL     1      28.853   1.020  54.048  1.00  0.00    +0.041 A 
ATOM     14  C   UNL     1      29.376  -0.236  53.744  1.00  0.00    +0.020 A 
ATOM     15 Cl   UNL     1      29.857   2.204  54.792  1.00  0.00    -0.084 Cl
ENDBRANCH   7   9
BRANCH   4  16
ATOM     16  C   UNL     1      22.364   2.232  51.326  1.00  0.00    +0.053 C 
ATOM     17  C   UNL     1      22.038   3.517  51.585  1.00  0.00    +0.054 C 
BRANCH  17  18
ATOM     18  N   UNL     1      22.671   4.330  52.510  1.00  0.00    -0.398 N 
ATOM     19  H   UNL     1      23.178   3.788  53.214  1.00  0.00    +0.156 HD
ATOM     20  H   UNL     1      22.056   5.001  52.967  1.00  0.00    +0.156 HD
ENDBRANCH  17  18
BRANCH  17  21
ATOM     21  C   UNL     1      20.952   4.138  50.819  1.00  0.00    +0.103 C 
ATOM     22  C   UNL     1      19.631   3.948  51.336  1.00  0.00    +0.103 C 
ATOM     23  C   UNL     1      21.170   4.844  49.687  1.00  0.00    +0.149 C 
ATOM     24  N   UNL     1      18.564   3.781  51.759  1.00  0.00    -0.192 NA
ATOM     25  C   UNL     1      22.480   5.008  49.150  1.00  0.00    +0.112 C 
ATOM     26  C   UNL     1      20.098   5.442  48.967  1.00  0.00    +0.112 C 
ATOM     27  N   UNL     1      23.532   5.142  48.679  1.00  0.00    -0.192 NA
ATOM     28  N   UNL     1      19.217   5.926  48.387  1.00  0.00    -0.192 NA
ENDBRANCH  17  21
ENDBRANCH   4  16
TORSDOF 4
ENDMDL
