MODEL 1
REMARK VINA RESULT:    -6.275      0.000      0.000
REMARK INTER + INTRA:          -9.546
REMARK INTER:                  -8.659
REMARK INTRA:                  -0.887
REMARK UNBOUND:                -0.887
REMARK SMILES C[N+](C)(C)C[C@H](O)CO[C@H]1CCCC[C@@H]1c1cnccn1
REMARK SMILES IDX 6 1 5 2 2 3 1 4 3 5 4 6 7 7 8 9 9 10 10 11 11 12 15 13 12 14
REMARK SMILES IDX 14 15 13 16 16 17 17 18 21 19 18 20 20 21 19 22
REMARK H PARENT 7 8
ROOT
ATOM      1  C   UNL     1      24.977   3.667  50.730  1.00  0.00    +0.195 C 
ENDROOT
BRANCH   1   2
ATOM      2  C   UNL     1      24.275   3.288  49.401  1.00  0.00    +0.297 C 
BRANCH   2   3
ATOM      3  N   UNL     1      22.722   3.313  49.344  1.00  0.00    -0.329 N 
ATOM      4  C   UNL     1      22.326   4.053  48.062  1.00  0.00    +0.334 C 
ATOM      5  C   UNL     1      22.131   4.082  50.516  1.00  0.00    +0.334 C 
ATOM      6  C   UNL     1      22.121   1.917  49.285  1.00  0.00    +0.334 C 
ENDBRANCH   2   3
ENDBRANCH   1   2
BRANCH   1   7
ATOM      7  O   UNL     1      25.885   4.755  50.534  1.00  0.00    -0.385 OA
ATOM      8  H   UNL     1      25.358   5.576  50.469  1.00  0.00    +0.211 HD
ENDBRANCH   1   7
BRANCH   1   9
ATOM      9  C   UNL     1      25.657   2.530  51.493  1.00  0.00    +0.198 C 
BRANCH   9  10
ATOM     10  O   UNL     1      24.800   1.390  51.541  1.00  0.00    -0.375 OA
BRANCH  10  11
ATOM     11  C   UNL     1      24.295   1.135  52.874  1.00  0.00    +0.127 C 
ATOM     12  C   UNL     1      22.757   1.263  52.887  1.00  0.00    +0.033 C 
ATOM     13  C   UNL     1      24.771  -0.280  53.291  1.00  0.00    +0.069 C 
ATOM     14  C   UNL     1      22.057  -0.086  52.746  1.00  0.00    +0.003 C 
ATOM     15  C   UNL     1      23.866  -0.860  54.381  1.00  0.00    +0.013 C 
ATOM     16  C   UNL     1      22.431  -1.041  53.880  1.00  0.00    +0.001 C 
BRANCH  13  17
ATOM     17  C   UNL     1      26.215  -0.269  53.749  1.00  0.00    +0.064 A 
ATOM     18  C   UNL     1      26.548   0.194  55.018  1.00  0.00    +0.135 A 
ATOM     19  N   UNL     1      27.175  -0.705  52.894  1.00  0.00    -0.258 NA
ATOM     20  N   UNL     1      27.819   0.201  55.487  1.00  0.00    -0.261 NA
ATOM     21  C   UNL     1      28.453  -0.622  53.334  1.00  0.00    +0.131 A 
ATOM     22  C   UNL     1      28.768  -0.182  54.604  1.00  0.00    +0.131 A 
ENDBRANCH  13  17
ENDBRANCH  10  11
ENDBRANCH   9  10
ENDBRANCH   1   9
TORSDOF 7
ENDMDL
MODEL 2
REMARK VINA RESULT:    -6.140      2.127      5.445
REMARK INTER + INTRA:          -9.361
REMARK INTER:                  -8.652
REMARK INTRA:                  -0.709
REMARK UNBOUND:                -0.887
REMARK SMILES C[N+](C)(C)C[C@H](O)CO[C@H]1CCCC[C@@H]1c1cnccn1
REMARK SMILES IDX 6 1 5 2 2 3 1 4 3 5 4 6 7 7 8 9 9 10 10 11 11 12 15 13 12 14
REMARK SMILES IDX 14 15 13 16 16 17 17 18 21 19 18 20 20 21 19 22
REMARK H PARENT 7 8
ROOT
ATOM      1  C   UNL     1      26.623   2.130  52.145  1.00  0.00    +0.195 C 
ENDROOT
BRANCH   1   2
ATOM      2  C   UNL     1      27.299   1.952  53.529  1.00  0.00    +0.297 C 
BRANCH   2   3
ATOM      3  N   UNL     1      27.494   0.515  54.085  1.00  0.00    -0.329 N 
ATOM      4  C   UNL     1      27.468  -0.443  52.889  1.00  0.00    +0.334 C 
ATOM      5  C   UNL     1      26.356   0.115  55.013  1.00  0.00    +0.334 C 
ATOM      6  C   UNL     1      28.827   0.342  54.796  1.00  0.00    +0.334 C 
ENDBRANCH   2   3
ENDBRANCH   1   2
BRANCH   1   7
ATOM      7  O   UNL     1      27.336   3.081  51.349  1.00  0.00    -0.385 OA
ATOM      8  H   UNL     1      27.767   2.597  50.618  1.00  0.00    +0.211 HD
ENDBRANCH   1   7
BRANCH   1   9
ATOM      9  C   UNL     1      25.127   2.446  52.150  1.00  0.00    +0.198 C 
BRANCH   9  10
ATOM     10  O   UNL     1      24.461   1.685  51.144  1.00  0.00    -0.375 OA
BRANCH  10  11
ATOM     11  C   UNL     1      23.075   2.071  50.987  1.00  0.00    +0.127 C 
ATOM     12  C   UNL     1      22.894   2.857  49.671  1.00  0.00    +0.033 C 
ATOM     13  C   UNL     1      22.222   0.777  51.021  1.00  0.00    +0.069 C 
ATOM     14  C   UNL     1      22.410   1.975  48.525  1.00  0.00    +0.003 C 
ATOM     15  C   UNL     1      20.877   0.992  50.321  1.00  0.00    +0.013 C 
ATOM     16  C   UNL     1      21.063   1.323  48.839  1.00  0.00    +0.001 C 
BRANCH  13  17
ATOM     17  C   UNL     1      22.012   0.286  52.437  1.00  0.00    +0.064 A 
ATOM     18  C   UNL     1      20.935   0.744  53.190  1.00  0.00    +0.135 A 
ATOM     19  N   UNL     1      22.901  -0.597  52.962  1.00  0.00    -0.258 NA
ATOM     20  N   UNL     1      20.686   0.317  54.452  1.00  0.00    -0.261 NA
ATOM     21  C   UNL     1      22.697  -0.961  54.250  1.00  0.00    +0.131 A 
ATOM     22  C   UNL     1      21.611  -0.516  54.978  1.00  0.00    +0.131 A 
ENDBRANCH  13  17
ENDBRANCH  10  11
ENDBRANCH   9  10
ENDBRANCH   1   9
TORSDOF 7
ENDMDL
MODEL 3
REMARK VINA RESULT:    -6.122      1.808      6.109
REMARK INTER + INTRA:          -9.335
REMARK INTER:                  -8.469
REMARK INTRA:                  -0.866
REMARK UNBOUND:                -0.887
REMARK SMILES C[N+](C)(C)C[C@H](O)CO[C@H]1CCCC[C@@H]1c1cnccn1
REMARK SMILES IDX 6 1 5 2 2 3 1 4 3 5 4 6 7 7 8 9 9 10 10 11 11 12 15 13 12 14
REMARK SMILES IDX 14 15 13 16 16 17 17 18 21 19 18 20 20 21 19 22
REMARK H PARENT 7 8
ROOT
ATOM      1  C   UNL     1      26.345   1.902  52.206  1.00  0.00    +0.195 C 
ENDROOT
BRANCH   1   2
ATOM      2  C   UNL     1      26.663   1.797  53.720  1.00  0.00    +0.297 C 
BRANCH   2   3
ATOM      3  N   UNL     1      27.248   0.466  54.269  1.00  0.00    -0.329 N 
ATOM      4  C   UNL     1      28.722   0.722  54.602  1.00  0.00    +0.334 C 
ATOM      5  C   UNL     1      27.202  -0.638  53.223  1.00  0.00    +0.334 C 
ATOM      6  C   UNL     1      26.552   0.005  55.539  1.00  0.00    +0.334 C 
ENDBRANCH   2   3
ENDBRANCH   1   2
BRANCH   1   7
ATOM      7  O   UNL     1      27.090   2.966  51.604  1.00  0.00    -0.385 OA
ATOM      8  H   UNL     1      28.011   2.905  51.924  1.00  0.00    +0.211 HD
ENDBRANCH   1   7
BRANCH   1   9
ATOM      9  C   UNL     1      24.868   1.993  51.822  1.00  0.00    +0.198 C 
BRANCH   9  10
ATOM     10  O   UNL     1      24.048   1.666  52.942  1.00  0.00    -0.375 OA
BRANCH  10  11
ATOM     11  C   UNL     1      23.130   0.585  52.657  1.00  0.00    +0.127 C 
ATOM     12  C   UNL     1      23.620  -0.713  53.333  1.00  0.00    +0.033 C 
ATOM     13  C   UNL     1      21.728   1.017  53.159  1.00  0.00    +0.069 C 
ATOM     14  C   UNL     1      22.942  -0.964  54.677  1.00  0.00    +0.003 C 
ATOM     15  C   UNL     1      20.844  -0.205  53.425  1.00  0.00    +0.013 C 
ATOM     16  C   UNL     1      21.425  -1.085  54.534  1.00  0.00    +0.001 C 
BRANCH  13  17
ATOM     17  C   UNL     1      21.054   1.958  52.183  1.00  0.00    +0.064 A 
ATOM     18  C   UNL     1      21.289   1.845  50.817  1.00  0.00    +0.135 A 
ATOM     19  N   UNL     1      20.229   2.922  52.669  1.00  0.00    -0.258 NA
ATOM     20  N   UNL     1      20.692   2.644  49.900  1.00  0.00    -0.261 NA
ATOM     21  C   UNL     1      19.696   3.771  51.759  1.00  0.00    +0.131 A 
ATOM     22  C   UNL     1      19.920   3.633  50.403  1.00  0.00    +0.131 A 
ENDBRANCH  13  17
ENDBRANCH  10  11
ENDBRANCH   9  10
ENDBRANCH   1   9
TORSDOF 7
ENDMDL
MODEL 4
REMARK VINA RESULT:    -5.990      2.590      4.125
REMARK INTER + INTRA:          -9.153
REMARK INTER:                  -8.526
REMARK INTRA:                  -0.627
REMARK UNBOUND:                -0.887
REMARK SMILES C[N+](C)(C)C[C@H](O)CO[C@H]1CCCC[C@@H]1c1cnccn1
REMARK SMILES IDX 6 1 5 2 2 3 1 4 3 5 4 6 7 7 8 9 9 10 10 11 11 12 15 13 12 14
REMARK SMILES IDX 14 15 13 16 16 17 17 18 21 19 18 20 20 21 19 22
REMARK H PARENT 7 8
ROOT
ATOM      1  C   UNL     1      23.217   4.706  52.358  1.00  0.00    +0.195 C 
ENDROOT
BRANCH   1   2
ATOM      2  C   UNL     1      23.831   5.285  51.058  1.00  0.00    +0.297 C 
BRANCH   2   3
ATOM      3  N   UNL     1      23.159   6.523  50.402  1.00  0.00    -0.329 N 
ATOM      4  C   UNL     1      23.879   7.767  50.935  1.00  0.00    +0.334 C 
ATOM      5  C   UNL     1      21.695   6.640  50.798  1.00  0.00    +0.334 C 
ATOM      6  C   UNL     1      23.287   6.519  48.887  1.00  0.00    +0.334 C 
ENDBRANCH   2   3
ENDBRANCH   1   2
BRANCH   1   7
ATOM      7  O   UNL     1      23.908   5.198  53.510  1.00  0.00    -0.385 OA
ATOM      8  H   UNL     1      24.866   5.078  53.359  1.00  0.00    +0.211 HD
ENDBRANCH   1   7
BRANCH   1   9
ATOM      9  C   UNL     1      23.070   3.186  52.427  1.00  0.00    +0.198 C 
BRANCH   9  10
ATOM     10  O   UNL     1      24.201   2.612  53.081  1.00  0.00    -0.375 OA
BRANCH  10  11
ATOM     11  C   UNL     1      24.716   1.456  52.379  1.00  0.00    +0.127 C 
ATOM     12  C   UNL     1      26.011   1.830  51.628  1.00  0.00    +0.033 C 
ATOM     13  C   UNL     1      24.946   0.337  53.428  1.00  0.00    +0.069 C 
ATOM     14  C   UNL     1      27.268   1.471  52.415  1.00  0.00    +0.003 C 
ATOM     15  C   UNL     1      25.977  -0.677  52.925  1.00  0.00    +0.013 C 
ATOM     16  C   UNL     1      27.345  -0.027  52.710  1.00  0.00    +0.001 C 
BRANCH  13  17
ATOM     17  C   UNL     1      23.651  -0.357  53.794  1.00  0.00    +0.064 A 
ATOM     18  C   UNL     1      23.553  -1.089  54.974  1.00  0.00    +0.135 A 
ATOM     19  N   UNL     1      22.596  -0.264  52.944  1.00  0.00    -0.258 NA
ATOM     20  N   UNL     1      22.412  -1.707  55.362  1.00  0.00    -0.261 NA
ATOM     21  C   UNL     1      21.482  -0.949  53.294  1.00  0.00    +0.131 A 
ATOM     22  C   UNL     1      21.390  -1.653  54.479  1.00  0.00    +0.131 A 
ENDBRANCH  13  17
ENDBRANCH  10  11
ENDBRANCH   9  10
ENDBRANCH   1   9
TORSDOF 7
ENDMDL
MODEL 5
REMARK VINA RESULT:    -5.763      1.581      2.309
REMARK INTER + INTRA:          -8.840
REMARK INTER:                  -8.253
REMARK INTRA:                  -0.587
REMARK UNBOUND:                -0.887
REMARK SMILES C[N+](C)(C)C[C@H](O)CO[C@H]1CCCC[C@@H]1c1cnccn1
REMARK SMILES IDX 6 1 5 2 2 3 1 4 3 5 4 6 7 7 8 9 9 10 10 11 11 12 15 13 12 14
REMARK SMILES IDX 14 15 13 16 16 17 17 18 21 19 18 20 20 21 19 22
REMARK H PARENT 7 8
ROOT
ATOM      1  C   UNL     1      22.490   1.927  49.715  1.00  0.00    +0.195 C 
ENDROOT
BRANCH   1   2
ATOM      2  C   UNL     1      22.524   3.434  49.354  1.00  0.00    +0.297 C 
BRANCH   2   3
ATOM      3  N   UNL     1      23.790   4.259  49.714  1.00  0.00    -0.329 N 
ATOM      4  C   UNL     1      23.935   5.356  48.652  1.00  0.00    +0.334 C 
ATOM      5  C   UNL     1      25.048   3.404  49.661  1.00  0.00    +0.334 C 
ATOM      6  C   UNL     1      23.679   4.933  51.073  1.00  0.00    +0.334 C 
ENDBRANCH   2   3
ENDBRANCH   1   2
BRANCH   1   7
ATOM      7  O   UNL     1      21.655   1.205  48.804  1.00  0.00    -0.385 OA
ATOM      8  H   UNL     1      20.785   1.078  49.232  1.00  0.00    +0.211 HD
ENDBRANCH   1   7
BRANCH   1   9
ATOM      9  C   UNL     1      22.138   1.577  51.161  1.00  0.00    +0.198 C 
BRANCH   9  10
ATOM     10  O   UNL     1      23.211   0.861  51.768  1.00  0.00    -0.375 OA
BRANCH  10  11
ATOM     11  C   UNL     1      23.010   0.662  53.188  1.00  0.00    +0.127 C 
ATOM     12  C   UNL     1      21.500   0.653  53.508  1.00  0.00    +0.033 C 
ATOM     13  C   UNL     1      23.702  -0.669  53.577  1.00  0.00    +0.069 C 
ATOM     14  C   UNL     1      20.929  -0.759  53.589  1.00  0.00    +0.003 C 
ATOM     15  C   UNL     1      23.095  -1.244  54.859  1.00  0.00    +0.013 C 
ATOM     16  C   UNL     1      21.616  -1.589  54.674  1.00  0.00    +0.001 C 
BRANCH  13  17
ATOM     17  C   UNL     1      25.199  -0.495  53.728  1.00  0.00    +0.064 A 
ATOM     18  C   UNL     1      25.756  -0.237  54.977  1.00  0.00    +0.135 A 
ATOM     19  N   UNL     1      25.982  -0.580  52.622  1.00  0.00    -0.258 NA
ATOM     20  N   UNL     1      27.089  -0.099  55.172  1.00  0.00    -0.261 NA
ATOM     21  C   UNL     1      27.306  -0.362  52.805  1.00  0.00    +0.131 A 
ATOM     22  C   UNL     1      27.848  -0.130  54.054  1.00  0.00    +0.131 A 
ENDBRANCH  13  17
ENDBRANCH  10  11
ENDBRANCH   9  10
ENDBRANCH   1   9
TORSDOF 7
ENDMDL
MODEL 6
REMARK VINA RESULT:    -5.649      1.572      1.975
REMARK INTER + INTRA:          -8.682
REMARK INTER:                  -8.386
REMARK INTRA:                  -0.297
REMARK UNBOUND:                -0.887
REMARK SMILES C[N+](C)(C)C[C@H](O)CO[C@H]1CCCC[C@@H]1c1cnccn1
REMARK SMILES IDX 6 1 5 2 2 3 1 4 3 5 4 6 7 7 8 9 9 10 10 11 11 12 15 13 12 14
REMARK SMILES IDX 14 15 13 16 16 17 17 18 21 19 18 20 20 21 19 22
REMARK H PARENT 7 8
ROOT
ATOM      1  C   UNL     1      26.211   3.580  50.358  1.00  0.00    +0.195 C 
ENDROOT
BRANCH   1   2
ATOM      2  C   UNL     1      24.998   3.612  49.394  1.00  0.00    +0.297 C 
BRANCH   2   3
ATOM      3  N   UNL     1      23.742   4.431  49.800  1.00  0.00    -0.329 N 
ATOM      4  C   UNL     1      23.519   5.489  48.714  1.00  0.00    +0.334 C 
ATOM      5  C   UNL     1      23.956   5.166  51.116  1.00  0.00    +0.334 C 
ATOM      6  C   UNL     1      22.490   3.572  49.884  1.00  0.00    +0.334 C 
ENDBRANCH   2   3
ENDBRANCH   1   2
BRANCH   1   7
ATOM      7  O   UNL     1      27.363   4.167  49.745  1.00  0.00    -0.385 OA
ATOM      8  H   UNL     1      27.518   5.034  50.169  1.00  0.00    +0.211 HD
ENDBRANCH   1   7
BRANCH   1   9
ATOM      9  C   UNL     1      26.560   2.225  50.974  1.00  0.00    +0.198 C 
BRANCH   9  10
ATOM     10  O   UNL     1      27.122   2.407  52.273  1.00  0.00    -0.375 OA
BRANCH  10  11
ATOM     11  C   UNL     1      26.388   1.693  53.296  1.00  0.00    +0.127 C 
ATOM     12  C   UNL     1      25.009   2.352  53.511  1.00  0.00    +0.033 C 
ATOM     13  C   UNL     1      26.270   0.215  52.843  1.00  0.00    +0.069 C 
ATOM     14  C   UNL     1      23.900   1.655  52.728  1.00  0.00    +0.003 C 
ATOM     15  C   UNL     1      25.082  -0.470  53.523  1.00  0.00    +0.013 C 
ATOM     16  C   UNL     1      23.756   0.187  53.132  1.00  0.00    +0.001 C 
BRANCH  13  17
ATOM     17  C   UNL     1      27.549  -0.552  53.107  1.00  0.00    +0.064 A 
ATOM     18  C   UNL     1      28.694   0.112  53.536  1.00  0.00    +0.135 A 
ATOM     19  N   UNL     1      27.559  -1.895  52.902  1.00  0.00    -0.258 NA
ATOM     20  N   UNL     1      29.854  -0.529  53.811  1.00  0.00    -0.261 NA
ATOM     21  C   UNL     1      28.743  -2.523  53.099  1.00  0.00    +0.131 A 
ATOM     22  C   UNL     1      29.865  -1.855  53.548  1.00  0.00    +0.131 A 
ENDBRANCH  13  17
ENDBRANCH  10  11
ENDBRANCH   9  10
ENDBRANCH   1   9
TORSDOF 7
ENDMDL
MODEL 7
REMARK VINA RESULT:    -5.576      2.686      5.250
REMARK INTER + INTRA:          -8.582
REMARK INTER:                  -7.641
REMARK INTRA:                  -0.940
REMARK UNBOUND:                -0.887
REMARK SMILES C[N+](C)(C)C[C@H](O)CO[C@H]1CCCC[C@@H]1c1cnccn1
REMARK SMILES IDX 6 1 5 2 2 3 1 4 3 5 4 6 7 7 8 9 9 10 10 11 11 12 15 13 12 14
REMARK SMILES IDX 14 15 13 16 16 17 17 18 21 19 18 20 20 21 19 22
REMARK H PARENT 7 8
ROOT
ATOM      1  C   UNL     1      20.826  -0.270  53.415  1.00  0.00    +0.195 C 
ENDROOT
BRANCH   1   2
ATOM      2  C   UNL     1      20.415   1.134  52.901  1.00  0.00    +0.297 C 
BRANCH   2   3
ATOM      3  N   UNL     1      19.910   1.274  51.438  1.00  0.00    -0.329 N 
ATOM      4  C   UNL     1      19.770   2.772  51.147  1.00  0.00    +0.334 C 
ATOM      5  C   UNL     1      18.537   0.644  51.257  1.00  0.00    +0.334 C 
ATOM      6  C   UNL     1      20.886   0.689  50.428  1.00  0.00    +0.334 C 
ENDBRANCH   2   3
ENDBRANCH   1   2
BRANCH   1   7
ATOM      7  O   UNL     1      19.830  -0.800  54.296  1.00  0.00    -0.385 OA
ATOM      8  H   UNL     1      18.980  -0.814  53.813  1.00  0.00    +0.211 HD
ENDBRANCH   1   7
BRANCH   1   9
ATOM      9  C   UNL     1      22.216  -0.389  54.040  1.00  0.00    +0.198 C 
BRANCH   9  10
ATOM     10  O   UNL     1      23.209  -0.454  53.018  1.00  0.00    -0.375 OA
BRANCH  10  11
ATOM     11  C   UNL     1      24.434   0.220  53.395  1.00  0.00    +0.127 C 
ATOM     12  C   UNL     1      25.433  -0.797  53.987  1.00  0.00    +0.033 C 
ATOM     13  C   UNL     1      24.990   0.922  52.131  1.00  0.00    +0.069 C 
ATOM     14  C   UNL     1      26.440  -1.294  52.956  1.00  0.00    +0.003 C 
ATOM     15  C   UNL     1      26.496   1.166  52.260  1.00  0.00    +0.013 C 
ATOM     16  C   UNL     1      27.269  -0.149  52.373  1.00  0.00    +0.001 C 
BRANCH  13  17
ATOM     17  C   UNL     1      24.263   2.221  51.850  1.00  0.00    +0.064 A 
ATOM     18  C   UNL     1      23.938   2.580  50.546  1.00  0.00    +0.135 A 
ATOM     19  N   UNL     1      23.950   3.033  52.893  1.00  0.00    -0.258 NA
ATOM     20  N   UNL     1      23.266   3.716  50.243  1.00  0.00    -0.261 NA
ATOM     21  C   UNL     1      23.350   4.206  52.582  1.00  0.00    +0.131 A 
ATOM     22  C   UNL     1      23.012   4.539  51.284  1.00  0.00    +0.131 A 
ENDBRANCH  13  17
ENDBRANCH  10  11
ENDBRANCH   9  10
ENDBRANCH   1   9
TORSDOF 7
ENDMDL
MODEL 8
REMARK VINA RESULT:    -5.119      3.443      5.424
REMARK INTER + INTRA:          -7.951
REMARK INTER:                  -7.023
REMARK INTRA:                  -0.928
REMARK UNBOUND:                -0.887
REMARK SMILES C[N+](C)(C)C[C@H](O)CO[C@H]1CCCC[C@@H]1c1cnccn1
REMARK SMILES IDX 6 1 5 2 2 3 1 4 3 5 4 6 7 7 8 9 9 10 10 11 11 12 15 13 12 14
REMARK SMILES IDX 14 15 13 16 16 17 17 18 21 19 18 20 20 21 19 22
REMARK H PARENT 7 8
ROOT
ATOM      1  C   UNL     1      23.623   5.610  51.410  1.00  0.00    +0.195 C 
ENDROOT
BRANCH   1   2
ATOM      2  C   UNL     1      23.569   5.992  49.909  1.00  0.00    +0.297 C 
BRANCH   2   3
ATOM      3  N   UNL     1      22.393   5.459  49.045  1.00  0.00    -0.329 N 
ATOM      4  C   UNL     1      22.106   6.512  47.968  1.00  0.00    +0.334 C 
ATOM      5  C   UNL     1      21.124   5.293  49.869  1.00  0.00    +0.334 C 
ATOM      6  C   UNL     1      22.730   4.152  48.346  1.00  0.00    +0.334 C 
ENDBRANCH   2   3
ENDBRANCH   1   2
BRANCH   1   7
ATOM      7  O   UNL     1      24.292   6.622  52.169  1.00  0.00    -0.385 OA
ATOM      8  H   UNL     1      23.614   7.129  52.657  1.00  0.00    +0.211 HD
ENDBRANCH   1   7
BRANCH   1   9
ATOM      9  C   UNL     1      24.182   4.227  51.745  1.00  0.00    +0.198 C 
BRANCH   9  10
ATOM     10  O   UNL     1      23.192   3.445  52.409  1.00  0.00    -0.375 OA
BRANCH  10  11
ATOM     11  C   UNL     1      23.089   2.107  51.866  1.00  0.00    +0.127 C 
ATOM     12  C   UNL     1      24.363   1.303  52.203  1.00  0.00    +0.033 C 
ATOM     13  C   UNL     1      21.811   1.459  52.456  1.00  0.00    +0.069 C 
ATOM     14  C   UNL     1      24.192   0.431  53.443  1.00  0.00    +0.003 C 
ATOM     15  C   UNL     1      21.905  -0.069  52.413  1.00  0.00    +0.013 C 
ATOM     16  C   UNL     1      23.061  -0.584  53.272  1.00  0.00    +0.001 C 
BRANCH  13  17
ATOM     17  C   UNL     1      20.564   1.935  51.741  1.00  0.00    +0.064 A 
ATOM     18  C   UNL     1      20.305   1.537  50.433  1.00  0.00    +0.135 A 
ATOM     19  N   UNL     1      19.714   2.769  52.395  1.00  0.00    -0.258 NA
ATOM     20  N   UNL     1      19.193   1.913  49.758  1.00  0.00    -0.261 NA
ATOM     21  C   UNL     1      18.644   3.208  51.691  1.00  0.00    +0.131 A 
ATOM     22  C   UNL     1      18.387   2.786  50.401  1.00  0.00    +0.131 A 
ENDBRANCH  13  17
ENDBRANCH  10  11
ENDBRANCH   9  10
ENDBRANCH   1   9
TORSDOF 7
ENDMDL
MODEL 9
REMARK VINA RESULT:    -5.113      2.519      3.349
REMARK INTER + INTRA:          -7.943
REMARK INTER:                  -7.534
REMARK INTRA:                  -0.409
REMARK UNBOUND:                -0.887
REMARK SMILES C[N+](C)(C)C[C@H](O)CO[C@H]1CCCC[C@@H]1c1cnccn1
REMARK SMILES IDX 6 1 5 2 2 3 1 4 3 5 4 6 7 7 8 9 9 10 10 11 11 12 15 13 12 14
REMARK SMILES IDX 14 15 13 16 16 17 17 18 21 19 18 20 20 21 19 22
REMARK H PARENT 7 8
ROOT
ATOM      1  C   UNL     1      21.034   1.287  49.772  1.00  0.00    +0.195 C 
ENDROOT
BRANCH   1   2
ATOM      2  C   UNL     1      19.506   1.255  50.035  1.00  0.00    +0.297 C 
BRANCH   2   3
ATOM      3  N   UNL     1      18.768   2.595  50.304  1.00  0.00    -0.329 N 
ATOM      4  C   UNL     1      18.336   3.157  48.945  1.00  0.00    +0.334 C 
ATOM      5  C   UNL     1      19.687   3.621  50.951  1.00  0.00    +0.334 C 
ATOM      6  C   UNL     1      17.520   2.411  51.154  1.00  0.00    +0.334 C 
ENDBRANCH   2   3
ENDBRANCH   1   2
BRANCH   1   7
ATOM      7  O   UNL     1      21.335   0.787  48.465  1.00  0.00    -0.385 OA
ATOM      8  H   UNL     1      21.671   1.532  47.930  1.00  0.00    +0.211 HD
ENDBRANCH   1   7
BRANCH   1   9
ATOM      9  C   UNL     1      21.923   0.620  50.822  1.00  0.00    +0.198 C 
BRANCH   9  10
ATOM     10  O   UNL     1      22.368   1.585  51.773  1.00  0.00    -0.375 OA
BRANCH  10  11
ATOM     11  C   UNL     1      22.227   1.122  53.137  1.00  0.00    +0.127 C 
ATOM     12  C   UNL     1      20.734   0.910  53.469  1.00  0.00    +0.033 C 
ATOM     13  C   UNL     1      23.051  -0.184  53.275  1.00  0.00    +0.069 C 
ATOM     14  C   UNL     1      20.299  -0.543  53.304  1.00  0.00    +0.003 C 
ATOM     15  C   UNL     1      22.537  -1.032  54.442  1.00  0.00    +0.013 C 
ATOM     16  C   UNL     1      21.092  -1.480  54.216  1.00  0.00    +0.001 C 
BRANCH  13  17
ATOM     17  C   UNL     1      24.528   0.105  53.438  1.00  0.00    +0.064 A 
ATOM     18  C   UNL     1      25.438  -0.937  53.591  1.00  0.00    +0.135 A 
ATOM     19  N   UNL     1      24.945   1.398  53.445  1.00  0.00    -0.258 NA
ATOM     20  N   UNL     1      26.772  -0.735  53.714  1.00  0.00    -0.261 NA
ATOM     21  C   UNL     1      26.268   1.601  53.649  1.00  0.00    +0.131 A 
ATOM     22  C   UNL     1      27.162   0.557  53.777  1.00  0.00    +0.131 A 
ENDBRANCH  13  17
ENDBRANCH  10  11
ENDBRANCH   9  10
ENDBRANCH   1   9
TORSDOF 7
ENDMDL
