MODEL 1
REMARK VINA RESULT:    -6.946      0.000      0.000
REMARK INTER + INTRA:          -9.059
REMARK INTER:                  -8.774
REMARK INTRA:                  -0.285
REMARK UNBOUND:                -0.285
REMARK SMILES CCN1CCN(c2cc(C(=O)O)cc(O)c2O)CC1
REMARK SMILES IDX 7 1 8 2 9 3 13 4 14 5 16 6 6 7 3 8 4 9 19 10 5 11 18 12 2 13
REMARK SMILES IDX 1 14 17 15 10 17 11 18 12 19 15 21
REMARK H PARENT 17 16 12 20 15 22
ROOT
ATOM      1  C   UNL     1      26.271   0.405  53.384  1.00  0.00    +0.084 A 
ATOM      2  C   UNL     1      26.999  -0.794  53.249  1.00  0.00    +0.045 A 
ATOM      3  C   UNL     1      28.389  -0.868  53.464  1.00  0.00    +0.065 A 
ATOM      4  C   UNL     1      29.105   0.272  53.827  1.00  0.00    +0.066 A 
ATOM      5  C   UNL     1      28.414   1.465  53.969  1.00  0.00    +0.160 A 
ATOM      6  C   UNL     1      27.028   1.534  53.754  1.00  0.00    +0.181 A 
ENDROOT
BRANCH   1   7
ATOM      7  N   UNL     1      24.899   0.413  53.171  1.00  0.00    -0.366 N 
ATOM      8  N   UNL     1      21.957   0.240  52.554  1.00  0.00    -0.300 NA
ATOM      9  C   UNL     1      22.749  -0.861  53.142  1.00  0.00    +0.106 C 
ATOM     10  C   UNL     1      22.805   1.435  52.334  1.00  0.00    +0.106 C 
ATOM     11  C   UNL     1      23.996  -0.441  53.960  1.00  0.00    +0.132 C 
ATOM     12  C   UNL     1      24.291   1.122  52.034  1.00  0.00    +0.132 C 
BRANCH   8  13
ATOM     13  C   UNL     1      20.772   0.594  53.344  1.00  0.00    +0.081 C 
ATOM     14  C   UNL     1      19.810  -0.578  53.498  1.00  0.00    +0.021 C 
ENDBRANCH   8  13
ENDBRANCH   1   7
BRANCH   6  15
ATOM     15  O   UNL     1      26.455   2.777  53.891  1.00  0.00    -0.503 OA
ATOM     16  H   UNL     1      26.906   3.332  53.224  1.00  0.00    +0.293 HD
ENDBRANCH   6  15
BRANCH   3  17
ATOM     17  C   UNL     1      29.051  -2.184  53.295  1.00  0.00    +0.335 C 
ATOM     18  O   UNL     1      30.208  -2.445  53.563  1.00  0.00    -0.246 OA
BRANCH  17  19
ATOM     19  O   UNL     1      28.224  -3.121  52.795  1.00  0.00    -0.478 OA
ATOM     20  H   UNL     1      28.679  -3.965  53.002  1.00  0.00    +0.297 HD
ENDBRANCH  17  19
ENDBRANCH   3  17
BRANCH   5  21
ATOM     21  O   UNL     1      29.057   2.626  54.316  1.00  0.00    -0.504 OA
ATOM     22  H   UNL     1      29.667   2.432  55.049  1.00  0.00    +0.293 HD
ENDBRANCH   5  21
TORSDOF 6
ENDMDL
MODEL 2
REMARK VINA RESULT:    -6.790      0.900      1.447
REMARK INTER + INTRA:          -8.862
REMARK INTER:                  -8.714
REMARK INTRA:                  -0.147
REMARK UNBOUND:                -0.285
REMARK SMILES CCN1CCN(c2cc(C(=O)O)cc(O)c2O)CC1
REMARK SMILES IDX 7 1 8 2 9 3 13 4 14 5 16 6 6 7 3 8 4 9 19 10 5 11 18 12 2 13
REMARK SMILES IDX 1 14 17 15 10 17 11 18 12 19 15 21
REMARK H PARENT 17 16 12 20 15 22
ROOT
ATOM      1  C   UNL     1      25.584   0.471  53.202  1.00  0.00    +0.084 A 
ATOM      2  C   UNL     1      26.335  -0.718  53.102  1.00  0.00    +0.045 A 
ATOM      3  C   UNL     1      27.726  -0.759  53.313  1.00  0.00    +0.065 A 
ATOM      4  C   UNL     1      28.422   0.406  53.637  1.00  0.00    +0.066 A 
ATOM      5  C   UNL     1      27.709   1.589  53.744  1.00  0.00    +0.160 A 
ATOM      6  C   UNL     1      26.321   1.625  53.533  1.00  0.00    +0.181 A 
ENDROOT
BRANCH   1   7
ATOM      7  N   UNL     1      24.211   0.446  52.995  1.00  0.00    -0.366 N 
ATOM      8  N   UNL     1      21.216   0.574  52.710  1.00  0.00    -0.300 NA
ATOM      9  C   UNL     1      22.128   1.702  52.421  1.00  0.00    +0.106 C 
ATOM     10  C   UNL     1      21.982  -0.622  53.134  1.00  0.00    +0.106 C 
ATOM     11  C   UNL     1      23.569   1.321  52.000  1.00  0.00    +0.132 C 
ATOM     12  C   UNL     1      23.305  -0.309  53.874  1.00  0.00    +0.132 C 
BRANCH   8  13
ATOM     13  C   UNL     1      20.328   0.240  51.591  1.00  0.00    +0.081 C 
ATOM     14  C   UNL     1      18.924  -0.129  52.059  1.00  0.00    +0.021 C 
ENDBRANCH   8  13
ENDBRANCH   1   7
BRANCH   6  15
ATOM     15  O   UNL     1      25.725   2.861  53.633  1.00  0.00    -0.503 OA
ATOM     16  H   UNL     1      25.796   3.244  52.737  1.00  0.00    +0.293 HD
ENDBRANCH   6  15
BRANCH   3  17
ATOM     17  C   UNL     1      28.413  -2.067  53.182  1.00  0.00    +0.335 C 
ATOM     18  O   UNL     1      29.549  -2.319  53.535  1.00  0.00    -0.246 OA
BRANCH  17  19
ATOM     19  O   UNL     1      27.636  -3.006  52.612  1.00  0.00    -0.478 OA
ATOM     20  H   UNL     1      26.981  -3.219  53.310  1.00  0.00    +0.297 HD
ENDBRANCH  17  19
ENDBRANCH   3  17
BRANCH   5  21
ATOM     21  O   UNL     1      28.331   2.773  54.052  1.00  0.00    -0.504 OA
ATOM     22  H   UNL     1      29.270   2.589  54.229  1.00  0.00    +0.293 HD
ENDBRANCH   5  21
TORSDOF 6
ENDMDL
MODEL 3
REMARK VINA RESULT:    -6.756      2.301      3.137
REMARK INTER + INTRA:          -8.818
REMARK INTER:                  -8.399
REMARK INTRA:                  -0.419
REMARK UNBOUND:                -0.285
REMARK SMILES CCN1CCN(c2cc(C(=O)O)cc(O)c2O)CC1
REMARK SMILES IDX 7 1 8 2 9 3 13 4 14 5 16 6 6 7 3 8 4 9 19 10 5 11 18 12 2 13
REMARK SMILES IDX 1 14 17 15 10 17 11 18 12 19 15 21
REMARK H PARENT 17 16 12 20 15 22
ROOT
ATOM      1  C   UNL     1      26.453   1.240  52.673  1.00  0.00    +0.084 A 
ATOM      2  C   UNL     1      26.518  -0.129  52.345  1.00  0.00    +0.045 A 
ATOM      3  C   UNL     1      27.445  -1.009  52.935  1.00  0.00    +0.065 A 
ATOM      4  C   UNL     1      28.349  -0.541  53.889  1.00  0.00    +0.066 A 
ATOM      5  C   UNL     1      28.306   0.801  54.233  1.00  0.00    +0.160 A 
ATOM      6  C   UNL     1      27.379   1.675  53.641  1.00  0.00    +0.181 A 
ENDROOT
BRANCH   1   7
ATOM      7  N   UNL     1      25.507   2.056  52.066  1.00  0.00    -0.366 N 
ATOM      8  N   UNL     1      23.545   4.012  50.886  1.00  0.00    -0.300 NA
ATOM      9  C   UNL     1      25.014   4.152  50.797  1.00  0.00    +0.106 C 
ATOM     10  C   UNL     1      23.181   2.772  51.612  1.00  0.00    +0.106 C 
ATOM     11  C   UNL     1      25.829   2.836  50.860  1.00  0.00    +0.132 C 
ATOM     12  C   UNL     1      24.203   2.335  52.688  1.00  0.00    +0.132 C 
BRANCH   8  13
ATOM     13  C   UNL     1      22.875   4.054  49.581  1.00  0.00    +0.081 C 
ATOM     14  C   UNL     1      22.732   2.668  48.961  1.00  0.00    +0.021 C 
ENDBRANCH   8  13
ENDBRANCH   1   7
BRANCH   6  15
ATOM     15  O   UNL     1      27.451   2.991  54.036  1.00  0.00    -0.503 OA
ATOM     16  H   UNL     1      26.573   3.363  53.819  1.00  0.00    +0.293 HD
ENDBRANCH   6  15
BRANCH   3  17
ATOM     17  C   UNL     1      27.422  -2.431  52.514  1.00  0.00    +0.335 C 
ATOM     18  O   UNL     1      26.625  -2.939  51.749  1.00  0.00    -0.246 OA
BRANCH  17  19
ATOM     19  O   UNL     1      28.409  -3.155  53.074  1.00  0.00    -0.478 OA
ATOM     20  H   UNL     1      28.106  -3.281  53.998  1.00  0.00    +0.297 HD
ENDBRANCH  17  19
ENDBRANCH   3  17
BRANCH   5  21
ATOM     21  O   UNL     1      29.170   1.330  55.157  1.00  0.00    -0.504 OA
ATOM     22  H   UNL     1      29.339   0.657  55.840  1.00  0.00    +0.293 HD
ENDBRANCH   5  21
TORSDOF 6
ENDMDL
MODEL 4
REMARK VINA RESULT:    -6.626      3.160      6.402
REMARK INTER + INTRA:          -8.654
REMARK INTER:                  -8.399
REMARK INTRA:                  -0.255
REMARK UNBOUND:                -0.285
REMARK SMILES CCN1CCN(c2cc(C(=O)O)cc(O)c2O)CC1
REMARK SMILES IDX 7 1 8 2 9 3 13 4 14 5 16 6 6 7 3 8 4 9 19 10 5 11 18 12 2 13
REMARK SMILES IDX 1 14 17 15 10 17 11 18 12 19 15 21
REMARK H PARENT 17 16 12 20 15 22
ROOT
ATOM      1  C   UNL     1      24.064   0.630  52.915  1.00  0.00    +0.084 A 
ATOM      2  C   UNL     1      23.197  -0.170  53.686  1.00  0.00    +0.045 A 
ATOM      3  C   UNL     1      21.840  -0.356  53.358  1.00  0.00    +0.065 A 
ATOM      4  C   UNL     1      21.300   0.261  52.230  1.00  0.00    +0.066 A 
ATOM      5  C   UNL     1      22.130   1.052  51.452  1.00  0.00    +0.160 A 
ATOM      6  C   UNL     1      23.482   1.234  51.784  1.00  0.00    +0.181 A 
ENDROOT
BRANCH   1   7
ATOM      7  N   UNL     1      25.396   0.765  53.282  1.00  0.00    -0.366 N 
ATOM      8  N   UNL     1      28.214   1.026  54.313  1.00  0.00    -0.300 NA
ATOM      9  C   UNL     1      27.368  -0.174  54.497  1.00  0.00    +0.106 C 
ATOM     10  C   UNL     1      27.491   2.061  53.537  1.00  0.00    +0.106 C 
ATOM     11  C   UNL     1      26.275  -0.407  53.425  1.00  0.00    +0.132 C 
ATOM     12  C   UNL     1      25.955   2.052  53.729  1.00  0.00    +0.132 C 
BRANCH   8  13
ATOM     13  C   UNL     1      29.511   0.736  53.691  1.00  0.00    +0.081 C 
ATOM     14  C   UNL     1      29.850  -0.750  53.730  1.00  0.00    +0.021 C 
ENDBRANCH   8  13
ENDBRANCH   1   7
BRANCH   6  15
ATOM     15  O   UNL     1      24.201   2.068  50.957  1.00  0.00    -0.503 OA
ATOM     16  H   UNL     1      24.044   1.719  50.057  1.00  0.00    +0.293 HD
ENDBRANCH   6  15
BRANCH   3  17
ATOM     17  C   UNL     1      21.022  -1.221  54.242  1.00  0.00    +0.335 C 
ATOM     18  O   UNL     1      21.441  -1.940  55.129  1.00  0.00    -0.246 OA
BRANCH  17  19
ATOM     19  O   UNL     1      19.706  -1.145  53.970  1.00  0.00    -0.478 OA
ATOM     20  H   UNL     1      19.651  -0.437  53.294  1.00  0.00    +0.297 HD
ENDBRANCH  17  19
ENDBRANCH   3  17
BRANCH   5  21
ATOM     21  O   UNL     1      21.662   1.695  50.334  1.00  0.00    -0.504 OA
ATOM     22  H   UNL     1      20.768   1.363  50.140  1.00  0.00    +0.293 HD
ENDBRANCH   5  21
TORSDOF 6
ENDMDL
MODEL 5
REMARK VINA RESULT:    -6.499      0.981      3.005
REMARK INTER + INTRA:          -8.493
REMARK INTER:                  -8.263
REMARK INTRA:                  -0.231
REMARK UNBOUND:                -0.285
REMARK SMILES CCN1CCN(c2cc(C(=O)O)cc(O)c2O)CC1
REMARK SMILES IDX 7 1 8 2 9 3 13 4 14 5 16 6 6 7 3 8 4 9 19 10 5 11 18 12 2 13
REMARK SMILES IDX 1 14 17 15 10 17 11 18 12 19 15 21
REMARK H PARENT 17 16 12 20 15 22
ROOT
ATOM      1  C   UNL     1      26.482   0.035  53.304  1.00  0.00    +0.084 A 
ATOM      2  C   UNL     1      27.271   1.154  53.641  1.00  0.00    +0.045 A 
ATOM      3  C   UNL     1      28.661   1.070  53.847  1.00  0.00    +0.065 A 
ATOM      4  C   UNL     1      29.317  -0.154  53.720  1.00  0.00    +0.066 A 
ATOM      5  C   UNL     1      28.567  -1.271  53.387  1.00  0.00    +0.160 A 
ATOM      6  C   UNL     1      27.180  -1.182  53.182  1.00  0.00    +0.181 A 
ENDROOT
BRANCH   1   7
ATOM      7  N   UNL     1      25.117   0.183  53.100  1.00  0.00    -0.366 N 
ATOM      8  N   UNL     1      22.165   0.303  52.515  1.00  0.00    -0.300 NA
ATOM      9  C   UNL     1      22.837  -0.839  53.172  1.00  0.00    +0.106 C 
ATOM     10  C   UNL     1      23.139   1.378  52.210  1.00  0.00    +0.106 C 
ATOM     11  C   UNL     1      24.135  -0.508  53.951  1.00  0.00    +0.132 C 
ATOM     12  C   UNL     1      24.576   0.879  51.922  1.00  0.00    +0.132 C 
BRANCH   8  13
ATOM     13  C   UNL     1      21.039   0.841  53.288  1.00  0.00    +0.081 C 
ATOM     14  C   UNL     1      20.521  -0.154  54.320  1.00  0.00    +0.021 C 
ENDBRANCH   8  13
ENDBRANCH   1   7
BRANCH   6  15
ATOM     15  O   UNL     1      26.535  -2.361  52.889  1.00  0.00    -0.503 OA
ATOM     16  H   UNL     1      27.174  -3.060  53.133  1.00  0.00    +0.293 HD
ENDBRANCH   6  15
BRANCH   3  17
ATOM     17  C   UNL     1      29.390   2.314  54.197  1.00  0.00    +0.335 C 
ATOM     18  O   UNL     1      29.889   2.573  55.275  1.00  0.00    -0.246 OA
BRANCH  17  19
ATOM     19  O   UNL     1      29.460   3.180  53.169  1.00  0.00    -0.478 OA
ATOM     20  H   UNL     1      29.331   2.613  52.380  1.00  0.00    +0.297 HD
ENDBRANCH  17  19
ENDBRANCH   3  17
BRANCH   5  21
ATOM     21  O   UNL     1      29.147  -2.507  53.254  1.00  0.00    -0.504 OA
ATOM     22  H   UNL     1      30.099  -2.384  53.096  1.00  0.00    +0.293 HD
ENDBRANCH   5  21
TORSDOF 6
ENDMDL
MODEL 6
REMARK VINA RESULT:    -6.227      3.146      6.991
REMARK INTER + INTRA:          -8.150
REMARK INTER:                  -7.837
REMARK INTRA:                  -0.313
REMARK UNBOUND:                -0.285
REMARK SMILES CCN1CCN(c2cc(C(=O)O)cc(O)c2O)CC1
REMARK SMILES IDX 7 1 8 2 9 3 13 4 14 5 16 6 6 7 3 8 4 9 19 10 5 11 18 12 2 13
REMARK SMILES IDX 1 14 17 15 10 17 11 18 12 19 15 21
REMARK H PARENT 17 16 12 20 15 22
ROOT
ATOM      1  C   UNL     1      23.689   0.345  53.462  1.00  0.00    +0.084 A 
ATOM      2  C   UNL     1      22.939   1.303  52.751  1.00  0.00    +0.045 A 
ATOM      3  C   UNL     1      21.533   1.354  52.795  1.00  0.00    +0.065 A 
ATOM      4  C   UNL     1      20.821   0.435  53.565  1.00  0.00    +0.066 A 
ATOM      5  C   UNL     1      21.532  -0.517  54.277  1.00  0.00    +0.160 A 
ATOM      6  C   UNL     1      22.935  -0.564  54.230  1.00  0.00    +0.181 A 
ENDROOT
BRANCH   1   7
ATOM      7  N   UNL     1      25.076   0.353  53.389  1.00  0.00    -0.366 N 
ATOM      8  N   UNL     1      28.061   0.494  53.017  1.00  0.00    -0.300 NA
ATOM      9  C   UNL     1      27.179   1.677  53.126  1.00  0.00    +0.106 C 
ATOM     10  C   UNL     1      27.275  -0.757  53.138  1.00  0.00    +0.106 C 
ATOM     11  C   UNL     1      25.865   1.475  53.921  1.00  0.00    +0.132 C 
ATOM     12  C   UNL     1      25.821  -0.655  52.617  1.00  0.00    +0.132 C 
BRANCH   8  13
ATOM     13  C   UNL     1      29.165   0.498  53.984  1.00  0.00    +0.081 C 
ATOM     14  C   UNL     1      30.109  -0.682  53.786  1.00  0.00    +0.021 C 
ENDBRANCH   8  13
ENDBRANCH   1   7
BRANCH   6  15
ATOM     15  O   UNL     1      23.532  -1.573  54.950  1.00  0.00    -0.503 OA
ATOM     16  H   UNL     1      23.343  -1.356  55.885  1.00  0.00    +0.293 HD
ENDBRANCH   6  15
BRANCH   3  17
ATOM     17  C   UNL     1      20.849   2.407  52.006  1.00  0.00    +0.335 C 
ATOM     18  O   UNL     1      20.902   2.547  50.799  1.00  0.00    -0.246 OA
BRANCH  17  19
ATOM     19  O   UNL     1      20.124   3.242  52.773  1.00  0.00    -0.478 OA
ATOM     20  H   UNL     1      20.619   3.267  53.619  1.00  0.00    +0.297 HD
ENDBRANCH  17  19
ENDBRANCH   3  17
BRANCH   5  21
ATOM     21  O   UNL     1      20.896  -1.456  55.048  1.00  0.00    -0.504 OA
ATOM     22  H   UNL     1      20.205  -1.880  54.509  1.00  0.00    +0.293 HD
ENDBRANCH   5  21
TORSDOF 6
ENDMDL
MODEL 7
REMARK VINA RESULT:    -6.083      3.596      5.635
REMARK INTER + INTRA:          -7.968
REMARK INTER:                  -7.571
REMARK INTRA:                  -0.397
REMARK UNBOUND:                -0.285
REMARK SMILES CCN1CCN(c2cc(C(=O)O)cc(O)c2O)CC1
REMARK SMILES IDX 7 1 8 2 9 3 13 4 14 5 16 6 6 7 3 8 4 9 19 10 5 11 18 12 2 13
REMARK SMILES IDX 1 14 17 15 10 17 11 18 12 19 15 21
REMARK H PARENT 17 16 12 20 15 22
ROOT
ATOM      1  C   UNL     1      23.831   1.259  52.530  1.00  0.00    +0.084 A 
ATOM      2  C   UNL     1      22.677   0.728  53.140  1.00  0.00    +0.045 A 
ATOM      3  C   UNL     1      22.724  -0.342  54.054  1.00  0.00    +0.065 A 
ATOM      4  C   UNL     1      23.947  -0.923  54.393  1.00  0.00    +0.066 A 
ATOM      5  C   UNL     1      25.098  -0.419  53.809  1.00  0.00    +0.160 A 
ATOM      6  C   UNL     1      25.045   0.649  52.898  1.00  0.00    +0.181 A 
ENDROOT
BRANCH   1   7
ATOM      7  N   UNL     1      23.722   2.324  51.645  1.00  0.00    -0.366 N 
ATOM      8  N   UNL     1      23.251   4.660  49.804  1.00  0.00    -0.300 NA
ATOM      9  C   UNL     1      23.129   4.724  51.277  1.00  0.00    +0.106 C 
ATOM     10  C   UNL     1      23.655   3.302  49.372  1.00  0.00    +0.106 C 
ATOM     11  C   UNL     1      23.983   3.708  52.075  1.00  0.00    +0.132 C 
ATOM     12  C   UNL     1      23.163   2.161  50.294  1.00  0.00    +0.132 C 
BRANCH   8  13
ATOM     13  C   UNL     1      24.166   5.665  49.250  1.00  0.00    +0.081 C 
ATOM     14  C   UNL     1      25.590   5.137  49.116  1.00  0.00    +0.021 C 
ENDBRANCH   8  13
ENDBRANCH   1   7
BRANCH   6  15
ATOM     15  O   UNL     1      26.248   1.043  52.358  1.00  0.00    -0.503 OA
ATOM     16  H   UNL     1      26.521   0.295  51.789  1.00  0.00    +0.293 HD
ENDBRANCH   6  15
BRANCH   3  17
ATOM     17  C   UNL     1      21.446  -0.819  54.636  1.00  0.00    +0.335 C 
ATOM     18  O   UNL     1      21.192  -1.961  54.970  1.00  0.00    -0.246 OA
BRANCH  17  19
ATOM     19  O   UNL     1      20.539   0.165  54.772  1.00  0.00    -0.478 OA
ATOM     20  H   UNL     1      20.466   0.539  53.869  1.00  0.00    +0.297 HD
ENDBRANCH  17  19
ENDBRANCH   3  17
BRANCH   5  21
ATOM     21  O   UNL     1      26.332  -0.948  54.091  1.00  0.00    -0.504 OA
ATOM     22  H   UNL     1      26.274  -1.429  54.935  1.00  0.00    +0.293 HD
ENDBRANCH   5  21
TORSDOF 6
ENDMDL
MODEL 8
REMARK VINA RESULT:    -6.034      3.402      5.299
REMARK INTER + INTRA:          -7.907
REMARK INTER:                  -7.476
REMARK INTRA:                  -0.431
REMARK UNBOUND:                -0.285
REMARK SMILES CCN1CCN(c2cc(C(=O)O)cc(O)c2O)CC1
REMARK SMILES IDX 7 1 8 2 9 3 13 4 14 5 16 6 6 7 3 8 4 9 19 10 5 11 18 12 2 13
REMARK SMILES IDX 1 14 17 15 10 17 11 18 12 19 15 21
REMARK H PARENT 17 16 12 20 15 22
ROOT
ATOM      1  C   UNL     1      22.773   0.900  52.710  1.00  0.00    +0.084 A 
ATOM      2  C   UNL     1      24.077   0.503  53.072  1.00  0.00    +0.045 A 
ATOM      3  C   UNL     1      24.329  -0.472  54.056  1.00  0.00    +0.065 A 
ATOM      4  C   UNL     1      23.270  -1.092  54.718  1.00  0.00    +0.066 A 
ATOM      5  C   UNL     1      21.977  -0.723  54.381  1.00  0.00    +0.160 A 
ATOM      6  C   UNL     1      21.731   0.250  53.399  1.00  0.00    +0.181 A 
ENDROOT
BRANCH   1   7
ATOM      7  N   UNL     1      22.587   1.858  51.723  1.00  0.00    -0.366 N 
ATOM      8  N   UNL     1      21.941   3.914  49.619  1.00  0.00    -0.300 NA
ATOM      9  C   UNL     1      21.564   4.035  51.044  1.00  0.00    +0.106 C 
ATOM     10  C   UNL     1      22.695   2.660  49.383  1.00  0.00    +0.106 C 
ATOM     11  C   UNL     1      22.470   3.288  52.054  1.00  0.00    +0.132 C 
ATOM     12  C   UNL     1      22.311   1.493  50.324  1.00  0.00    +0.132 C 
BRANCH   8  13
ATOM     13  C   UNL     1      22.699   5.066  49.116  1.00  0.00    +0.081 C 
ATOM     14  C   UNL     1      24.198   4.794  49.067  1.00  0.00    +0.021 C 
ENDBRANCH   8  13
ENDBRANCH   1   7
BRANCH   6  15
ATOM     15  O   UNL     1      20.409   0.560  53.172  1.00  0.00    -0.503 OA
ATOM     16  H   UNL     1      20.079  -0.165  52.605  1.00  0.00    +0.293 HD
ENDBRANCH   6  15
BRANCH   3  17
ATOM     17  C   UNL     1      25.742  -0.812  54.353  1.00  0.00    +0.335 C 
ATOM     18  O   UNL     1      26.521  -1.362  53.599  1.00  0.00    -0.246 OA
BRANCH  17  19
ATOM     19  O   UNL     1      26.115  -0.442  55.593  1.00  0.00    -0.478 OA
ATOM     20  H   UNL     1      26.221   0.530  55.521  1.00  0.00    +0.297 HD
ENDBRANCH  17  19
ENDBRANCH   3  17
BRANCH   5  21
ATOM     21  O   UNL     1      20.890  -1.286  54.999  1.00  0.00    -0.504 OA
ATOM     22  H   UNL     1      21.139  -1.517  55.910  1.00  0.00    +0.293 HD
ENDBRANCH   5  21
TORSDOF 6
ENDMDL
MODEL 9
REMARK VINA RESULT:    -5.942      3.066      6.758
REMARK INTER + INTRA:          -7.790
REMARK INTER:                  -7.352
REMARK INTRA:                  -0.438
REMARK UNBOUND:                -0.285
REMARK SMILES CCN1CCN(c2cc(C(=O)O)cc(O)c2O)CC1
REMARK SMILES IDX 7 1 8 2 9 3 13 4 14 5 16 6 6 7 3 8 4 9 19 10 5 11 18 12 2 13
REMARK SMILES IDX 1 14 17 15 10 17 11 18 12 19 15 21
REMARK H PARENT 17 16 12 20 15 22
ROOT
ATOM      1  C   UNL     1      24.266   0.837  52.981  1.00  0.00    +0.084 A 
ATOM      2  C   UNL     1      24.187   2.203  52.640  1.00  0.00    +0.045 A 
ATOM      3  C   UNL     1      22.969   2.842  52.341  1.00  0.00    +0.065 A 
ATOM      4  C   UNL     1      21.773   2.126  52.375  1.00  0.00    +0.066 A 
ATOM      5  C   UNL     1      21.820   0.782  52.710  1.00  0.00    +0.160 A 
ATOM      6  C   UNL     1      23.038   0.149  53.007  1.00  0.00    +0.181 A 
ENDROOT
BRANCH   1   7
ATOM      7  N   UNL     1      25.496   0.265  53.278  1.00  0.00    -0.366 N 
ATOM      8  N   UNL     1      28.046  -1.190  53.949  1.00  0.00    -0.300 NA
ATOM      9  C   UNL     1      27.179  -1.519  52.796  1.00  0.00    +0.106 C 
ATOM     10  C   UNL     1      27.496  -0.040  54.705  1.00  0.00    +0.106 C 
ATOM     11  C   UNL     1      26.327  -0.354  52.233  1.00  0.00    +0.132 C 
ATOM     12  C   UNL     1      25.954   0.078  54.664  1.00  0.00    +0.132 C 
BRANCH   8  13
ATOM     13  C   UNL     1      29.441  -0.935  53.576  1.00  0.00    +0.081 C 
ATOM     14  C   UNL     1      29.767   0.554  53.542  1.00  0.00    +0.021 C 
ENDBRANCH   8  13
ENDBRANCH   1   7
BRANCH   6  15
ATOM     15  O   UNL     1      22.967  -1.196  53.293  1.00  0.00    -0.503 OA
ATOM     16  H   UNL     1      23.800  -1.568  52.942  1.00  0.00    +0.293 HD
ENDBRANCH   6  15
BRANCH   3  17
ATOM     17  C   UNL     1      23.005   4.284  51.996  1.00  0.00    +0.335 C 
ATOM     18  O   UNL     1      23.998   4.929  51.714  1.00  0.00    -0.246 OA
BRANCH  17  19
ATOM     19  O   UNL     1      21.787   4.855  52.020  1.00  0.00    -0.478 OA
ATOM     20  H   UNL     1      21.874   5.610  51.400  1.00  0.00    +0.297 HD
ENDBRANCH  17  19
ENDBRANCH   3  17
BRANCH   5  21
ATOM     21  O   UNL     1      20.683   0.016  52.755  1.00  0.00    -0.504 OA
ATOM     22  H   UNL     1      20.294   0.096  53.643  1.00  0.00    +0.293 HD
ENDBRANCH   5  21
TORSDOF 6
ENDMDL
