REMARK SMILES O=[N+]([O-])c1cc(-c2cc(O)ccc2[N+](=O)[O-])ccc1O
REMARK SMILES IDX 4 1 5 2 6 3 17 4 18 5 19 6 2 7 1 8 3 9 20 10 7 12 8 13 13 14
REMARK SMILES IDX 9 15 12 16 11 17 14 18 15 19 16 20 10 21
REMARK H PARENT 20 11 10 22
ROOT
ATOM      1  C   UNL     1       2.752   0.421   0.218  1.00  0.00    +0.311 A 
ATOM      2  C   UNL     1       1.390   0.665   0.437  1.00  0.00    +0.098 A 
ATOM      3  C   UNL     1       0.429  -0.115  -0.223  1.00  0.00    -0.004 A 
ATOM      4  C   UNL     1       0.873  -1.125  -1.098  1.00  0.00    +0.013 A 
ATOM      5  C   UNL     1       2.239  -1.367  -1.298  1.00  0.00    +0.054 A 
ATOM      6  C   UNL     1       3.186  -0.592  -0.634  1.00  0.00    +0.194 A 
ENDROOT
BRANCH   1   7
ATOM      7  N   UNL     1       3.712   1.262   0.902  1.00  0.00    +0.066 N 
ATOM      8  O   UNL     1       4.440   1.983   0.205  1.00  0.00    -0.258 OA
ATOM      9  O   UNL     1       3.688   1.247   2.141  1.00  0.00    -0.258 OA
ENDBRANCH   1   7
BRANCH   6  10
ATOM     10  O   UNL     1       4.515  -0.844  -0.808  1.00  0.00    -0.502 OA
ATOM     11  H   UNL     1       4.636  -1.566  -1.448  1.00  0.00    +0.293 HD
ENDBRANCH   6  10
BRANCH   3  12
ATOM     12  C   UNL     1      -1.007   0.127  -0.012  1.00  0.00    +0.063 A 
ATOM     13  C   UNL     1      -1.579   1.329  -0.463  1.00  0.00    +0.062 A 
ATOM     14  C   UNL     1      -1.873  -0.791   0.611  1.00  0.00    +0.277 A 
ATOM     15  C   UNL     1      -2.943   1.580  -0.301  1.00  0.00    +0.116 A 
ATOM     16  C   UNL     1      -3.247  -0.546   0.772  1.00  0.00    +0.090 A 
ATOM     17  C   UNL     1      -3.782   0.654   0.310  1.00  0.00    +0.053 A 
BRANCH  14  18
ATOM     18  N   UNL     1      -1.361  -2.045   1.131  1.00  0.00    +0.063 N 
ATOM     19  O   UNL     1      -1.755  -3.080   0.577  1.00  0.00    -0.258 OA
ATOM     20  O   UNL     1      -0.589  -1.986   2.096  1.00  0.00    -0.258 OA
ENDBRANCH  14  18
BRANCH  15  21
ATOM     21  O   UNL     1      -3.421   2.768  -0.769  1.00  0.00    -0.508 OA
ATOM     22  H   UNL     1      -4.374   2.826  -0.588  1.00  0.00    +0.293 HD
ENDBRANCH  15  21
ENDBRANCH   3  12
TORSDOF 5
