REMARK SMILES N#CC(C#N)=C(C#N)C(N)=Cc1ccc2c(cnn2CCC(=O)O)c1
REMARK SMILES IDX 20 1 19 2 12 3 13 4 25 5 14 6 16 7 15 8 17 9 18 10 11 11
REMARK SMILES IDX 9 12 6 13 1 14 2 15 3 16 4 17 5 18 7 19 8 20 10 21 21 24
REMARK SMILES IDX 22 25 23 26 24 27
REMARK H PARENT 10 22 10 23 24 28
ROOT
ATOM      1  C   UNL     1       4.175   0.301   0.236  1.00  0.00    +0.156 C 
ENDROOT
BRANCH   1   2
ATOM      2  N   UNL     1       3.072  -0.539  -0.192  1.00  0.00    -0.264 N 
ATOM      3  C   UNL     1      -0.989  -0.739   0.486  1.00  0.00    -0.023 A 
ATOM      4  C   UNL     1      -0.312   0.284   1.159  1.00  0.00    +0.010 A 
ATOM      5  C   UNL     1      -0.287  -1.620  -0.351  1.00  0.00    +0.020 A 
ATOM      6  C   UNL     1       1.069   0.463   1.013  1.00  0.00    +0.029 A 
ATOM      7  C   UNL     1       1.100  -1.453  -0.510  1.00  0.00    +0.020 A 
ATOM      8  C   UNL     1       1.750  -0.425   0.170  1.00  0.00    +0.068 A 
ATOM      9  C   UNL     1       2.120  -2.100  -1.240  1.00  0.00    +0.143 A 
ATOM     10  N   UNL     1       3.318  -1.541  -1.060  1.00  0.00    -0.180 NA
BRANCH   3  11
ATOM     11  C   UNL     1      -2.438  -0.886   0.676  1.00  0.00    +0.035 C 
ATOM     12  C   UNL     1      -3.364  -0.692  -0.286  1.00  0.00    +0.052 C 
BRANCH  12  13
ATOM     13  C   UNL     1      -4.780  -0.864   0.055  1.00  0.00    +0.103 C 
ATOM     14  N   UNL     1      -4.464   2.395   1.214  1.00  0.00    -0.192 NA
ATOM     15  C   UNL     1      -4.944   1.369   0.963  1.00  0.00    +0.112 C 
ATOM     16  C   UNL     1      -5.515   0.102   0.649  1.00  0.00    +0.149 C 
ATOM     17  C   UNL     1      -6.886  -0.095   0.980  1.00  0.00    +0.112 C 
ATOM     18  N   UNL     1      -8.002  -0.249   1.252  1.00  0.00    -0.192 NA
ATOM     19  C   UNL     1      -5.347  -2.139  -0.263  1.00  0.00    +0.103 C 
ATOM     20  N   UNL     1      -5.828  -3.167  -0.499  1.00  0.00    -0.192 NA
ENDBRANCH  12  13
BRANCH  12  21
ATOM     21  N   UNL     1      -3.073  -0.319  -1.583  1.00  0.00    -0.398 N 
ATOM     22  H   UNL     1      -3.757   0.276  -2.042  1.00  0.00    +0.156 HD
ATOM     23  H   UNL     1      -2.124   0.039  -1.704  1.00  0.00    +0.156 HD
ENDBRANCH  12  21
ENDBRANCH   3  11
ENDBRANCH   1   2
BRANCH   1  24
ATOM     24  C   UNL     1       4.481   1.380  -0.789  1.00  0.00    +0.146 C 
BRANCH  24  25
ATOM     25  C   UNL     1       5.601   2.244  -0.301  1.00  0.00    +0.305 C 
ATOM     26  O   UNL     1       6.116   2.226   0.803  1.00  0.00    -0.252 OA
BRANCH  25  27
ATOM     27  O   UNL     1       6.009   3.122  -1.237  1.00  0.00    -0.481 OA
ATOM     28  H   UNL     1       6.735   3.623  -0.809  1.00  0.00    +0.296 HD
ENDBRANCH  25  27
ENDBRANCH  24  25
ENDBRANCH   1  24
TORSDOF 7
