REMARK SMILES Clc1cccc(-c2ncnc3ccc(N/N=N/CCN4CCOCC4)cc23)c1
REMARK SMILES IDX 16 1 17 2 15 3 14 5 7 6 8 7 27 8 9 9 26 10 11 11 10 12 12 13
REMARK SMILES IDX 13 14 6 15 2 16 3 17 28 18 4 19 5 20 1 21 18 22 19 23 20 24
REMARK SMILES IDX 21 25 25 26 22 27 24 28 23 29
REMARK H PARENT 15 4
ROOT
ATOM      1  N   UNL     1      -0.952   0.325   0.359  1.00  0.00    -0.075 NA
ATOM      2  N   UNL     1      -1.417  -0.158   1.409  1.00  0.00    -0.170 NA
ENDROOT
BRANCH   1   3
ATOM      3  N   UNL     1       0.327  -0.083   0.309  1.00  0.00    -0.260 N 
ATOM      4  H   UNL     1       0.713  -0.392   1.194  1.00  0.00    +0.192 HD
BRANCH   3   5
ATOM      5  C   UNL     1       1.215   0.537  -0.583  1.00  0.00    +0.059 A 
ATOM      6  C   UNL     1       4.919   0.668  -1.335  1.00  0.00    +0.082 A 
ATOM      7  N   UNL     1       5.763   1.181  -2.257  1.00  0.00    -0.236 NA
ATOM      8  C   UNL     1       3.525   0.843  -1.386  1.00  0.00    +0.029 A 
ATOM      9  C   UNL     1       5.199   1.904  -3.228  1.00  0.00    +0.223 A 
ATOM     10  C   UNL     1       2.588   0.294  -0.469  1.00  0.00    +0.040 A 
ATOM     11  C   UNL     1       3.070   1.620  -2.456  1.00  0.00    +0.074 A 
ATOM     12  N   UNL     1       3.891   2.155  -3.368  1.00  0.00    -0.236 NA
ATOM     13  C   UNL     1       1.706   1.838  -2.576  1.00  0.00    +0.031 A 
ATOM     14  C   UNL     1       0.786   1.304  -1.665  1.00  0.00    +0.030 A 
BRANCH   6  15
ATOM     15  C   UNL     1       5.602  -0.071  -0.263  1.00  0.00    +0.002 A 
ATOM     16  C   UNL     1       6.822  -2.024   0.509  1.00  0.00    +0.041 A 
ATOM     17  C   UNL     1       6.910  -1.483   1.791  1.00  0.00    +0.020 A 
ATOM     18  C   UNL     1       6.178  -1.326  -0.514  1.00  0.00    +0.030 A 
ATOM     19  C   UNL     1       6.357  -0.231   2.052  1.00  0.00    +0.002 A 
ATOM     20  C   UNL     1       5.710   0.470   1.032  1.00  0.00    +0.010 A 
ATOM     21 Cl   UNL     1       7.511  -3.568   0.188  1.00  0.00    -0.084 Cl
ENDBRANCH   6  15
ENDBRANCH   3   5
ENDBRANCH   1   3
BRANCH   2  22
ATOM     22  C   UNL     1      -2.838   0.188   1.598  1.00  0.00    +0.184 C 
BRANCH  22  23
ATOM     23  C   UNL     1      -3.718  -0.759   0.767  1.00  0.00    +0.110 C 
BRANCH  23  24
ATOM     24  N   UNL     1      -5.165  -0.627   1.034  1.00  0.00    -0.297 NA
ATOM     25  C   UNL     1      -5.694   0.688   0.609  1.00  0.00    +0.113 C 
ATOM     26  C   UNL     1      -5.907  -1.686   0.310  1.00  0.00    +0.113 C 
ATOM     27  C   UNL     1      -7.220   0.767   0.791  1.00  0.00    +0.175 C 
ATOM     28  C   UNL     1      -7.425  -1.551   0.504  1.00  0.00    +0.175 C 
ATOM     29  O   UNL     1      -7.888  -0.270   0.062  1.00  0.00    -0.379 OA
ENDBRANCH  23  24
ENDBRANCH  22  23
ENDBRANCH   2  22
TORSDOF 6
