MODEL 1
REMARK VINA RESULT:    -6.234      0.000      0.000
REMARK INTER + INTRA:          -8.454
REMARK INTER:                  -8.239
REMARK INTRA:                  -0.215
REMARK UNBOUND:                -0.215
REMARK SMILES Cc1cc(C)c(OC[C@@H](O)C[N+](C)(C)C)c(C)c1
REMARK SMILES IDX 8 1 7 2 6 3 2 4 3 5 18 6 4 7 16 8 1 9 5 10 17 11 9 12 10 13
REMARK SMILES IDX 11 15 12 16 13 17 14 18 15 19
REMARK H PARENT 10 14
ROOT
ATOM      1  C   UNL     1      25.162  -0.767  52.771  1.00  0.00    +0.267 C 
ENDROOT
BRANCH   1   2
ATOM      2  O   UNL     1      24.415   0.217  53.506  1.00  0.00    -0.490 OA
BRANCH   2   3
ATOM      3  C   UNL     1      23.068  -0.045  53.450  1.00  0.00    +0.125 A 
ATOM      4  C   UNL     1      20.316  -0.533  53.288  1.00  0.00    -0.050 A 
ATOM      5  C   UNL     1      21.080  -1.106  54.313  1.00  0.00    +0.010 A 
ATOM      6  C   UNL     1      20.944   0.293  52.347  1.00  0.00    +0.010 A 
ATOM      7  C   UNL     1      22.456  -0.848  54.424  1.00  0.00    -0.008 A 
ATOM      8  C   UNL     1      22.317   0.564  52.430  1.00  0.00    -0.008 A 
ATOM      9  C   UNL     1      18.848  -0.831  53.178  1.00  0.00    +0.044 C 
ATOM     10  C   UNL     1      23.223  -1.458  55.563  1.00  0.00    +0.048 C 
ATOM     11  C   UNL     1      22.955   1.464  51.409  1.00  0.00    +0.048 C 
ENDBRANCH   2   3
ENDBRANCH   1   2
BRANCH   1  12
ATOM     12  C   UNL     1      26.537  -0.873  53.448  1.00  0.00    +0.206 C 
BRANCH  12  13
ATOM     13  O   UNL     1      27.102  -2.155  53.143  1.00  0.00    -0.384 OA
ATOM     14  H   UNL     1      27.737  -2.355  53.866  1.00  0.00    +0.211 HD
ENDBRANCH  12  13
BRANCH  12  15
ATOM     15  C   UNL     1      27.470   0.247  52.946  1.00  0.00    +0.299 C 
BRANCH  15  16
ATOM     16  N   UNL     1      28.623   0.627  53.920  1.00  0.00    -0.329 N 
ATOM     17  C   UNL     1      28.273   0.275  55.357  1.00  0.00    +0.334 C 
ATOM     18  C   UNL     1      29.933  -0.063  53.535  1.00  0.00    +0.334 C 
ATOM     19  C   UNL     1      28.834   2.138  53.825  1.00  0.00    +0.334 C 
ENDBRANCH  15  16
ENDBRANCH  12  15
ENDBRANCH   1  12
TORSDOF 6
ENDMDL
MODEL 2
REMARK VINA RESULT:    -6.187      0.068      2.286
REMARK INTER + INTRA:          -8.392
REMARK INTER:                  -8.243
REMARK INTRA:                  -0.149
REMARK UNBOUND:                -0.215
REMARK SMILES Cc1cc(C)c(OC[C@@H](O)C[N+](C)(C)C)c(C)c1
REMARK SMILES IDX 8 1 7 2 6 3 2 4 3 5 18 6 4 7 16 8 1 9 5 10 17 11 9 12 10 13
REMARK SMILES IDX 11 15 12 16 13 17 14 18 15 19
REMARK H PARENT 10 14
ROOT
ATOM      1  C   UNL     1      25.144  -0.636  52.764  1.00  0.00    +0.267 C 
ENDROOT
BRANCH   1   2
ATOM      2  O   UNL     1      24.383   0.259  53.593  1.00  0.00    -0.490 OA
BRANCH   2   3
ATOM      3  C   UNL     1      23.038   0.007  53.485  1.00  0.00    +0.125 A 
ATOM      4  C   UNL     1      20.301  -0.554  53.310  1.00  0.00    -0.050 A 
ATOM      5  C   UNL     1      20.919   0.270  52.361  1.00  0.00    +0.010 A 
ATOM      6  C   UNL     1      21.070  -1.100  54.347  1.00  0.00    +0.010 A 
ATOM      7  C   UNL     1      22.296   0.538  52.418  1.00  0.00    -0.008 A 
ATOM      8  C   UNL     1      22.446  -0.846  54.432  1.00  0.00    -0.008 A 
ATOM      9  C   UNL     1      18.824  -0.818  53.240  1.00  0.00    +0.044 C 
ATOM     10  C   UNL     1      22.917   1.398  51.355  1.00  0.00    +0.048 C 
ATOM     11  C   UNL     1      23.242  -1.457  55.550  1.00  0.00    +0.048 C 
ENDBRANCH   2   3
ENDBRANCH   1   2
BRANCH   1  12
ATOM     12  C   UNL     1      26.510  -0.814  53.443  1.00  0.00    +0.206 C 
BRANCH  12  13
ATOM     13  O   UNL     1      26.989  -2.138  53.173  1.00  0.00    -0.384 OA
ATOM     14  H   UNL     1      26.479  -2.462  52.399  1.00  0.00    +0.211 HD
ENDBRANCH  12  13
BRANCH  12  15
ATOM     15  C   UNL     1      27.513   0.228  52.910  1.00  0.00    +0.299 C 
BRANCH  15  16
ATOM     16  N   UNL     1      28.625   0.644  53.917  1.00  0.00    -0.329 N 
ATOM     17  C   UNL     1      28.903   2.138  53.851  1.00  0.00    +0.334 C 
ATOM     18  C   UNL     1      28.255   0.262  55.351  1.00  0.00    +0.334 C 
ATOM     19  C   UNL     1      29.902  -0.106  53.538  1.00  0.00    +0.334 C 
ENDBRANCH  15  16
ENDBRANCH  12  15
ENDBRANCH   1  12
TORSDOF 6
ENDMDL
MODEL 3
REMARK VINA RESULT:    -5.950      1.149      1.655
REMARK INTER + INTRA:          -8.078
REMARK INTER:                  -7.893
REMARK INTRA:                  -0.185
REMARK UNBOUND:                -0.215
REMARK SMILES Cc1cc(C)c(OC[C@@H](O)C[N+](C)(C)C)c(C)c1
REMARK SMILES IDX 8 1 7 2 6 3 2 4 3 5 18 6 4 7 16 8 1 9 5 10 17 11 9 12 10 13
REMARK SMILES IDX 11 15 12 16 13 17 14 18 15 19
REMARK H PARENT 10 14
ROOT
ATOM      1  C   UNL     1      24.667  -0.342  53.104  1.00  0.00    +0.267 C 
ENDROOT
BRANCH   1   2
ATOM      2  O   UNL     1      23.805   0.765  53.420  1.00  0.00    -0.490 OA
BRANCH   2   3
ATOM      3  C   UNL     1      22.546   0.569  52.910  1.00  0.00    +0.125 A 
ATOM      4  C   UNL     1      19.990   0.212  51.823  1.00  0.00    -0.050 A 
ATOM      5  C   UNL     1      20.313  -0.331  53.075  1.00  0.00    +0.010 A 
ATOM      6  C   UNL     1      20.961   0.941  51.124  1.00  0.00    +0.010 A 
ATOM      7  C   UNL     1      21.580  -0.137  53.645  1.00  0.00    -0.008 A 
ATOM      8  C   UNL     1      22.237   1.147  51.667  1.00  0.00    -0.008 A 
ATOM      9  C   UNL     1      18.633  -0.018  51.223  1.00  0.00    +0.044 C 
ATOM     10  C   UNL     1      21.863  -0.709  55.005  1.00  0.00    +0.048 C 
ATOM     11  C   UNL     1      23.249   1.943  50.894  1.00  0.00    +0.048 C 
ENDBRANCH   2   3
ENDBRANCH   1   2
BRANCH   1  12
ATOM     12  C   UNL     1      25.770  -0.362  54.172  1.00  0.00    +0.206 C 
BRANCH  12  13
ATOM     13  O   UNL     1      25.371  -1.243  55.231  1.00  0.00    -0.384 OA
ATOM     14  H   UNL     1      25.026  -0.669  55.950  1.00  0.00    +0.211 HD
ENDBRANCH  12  13
BRANCH  12  15
ATOM     15  C   UNL     1      27.101  -0.844  53.560  1.00  0.00    +0.299 C 
BRANCH  15  16
ATOM     16  N   UNL     1      28.333   0.051  53.879  1.00  0.00    -0.329 N 
ATOM     17  C   UNL     1      29.633  -0.632  53.482  1.00  0.00    +0.334 C 
ATOM     18  C   UNL     1      28.240   1.406  53.174  1.00  0.00    +0.334 C 
ATOM     19  C   UNL     1      28.353   0.298  55.386  1.00  0.00    +0.334 C 
ENDBRANCH  15  16
ENDBRANCH  12  15
ENDBRANCH   1  12
TORSDOF 6
ENDMDL
MODEL 4
REMARK VINA RESULT:    -5.886      1.817      2.466
REMARK INTER + INTRA:          -7.994
REMARK INTER:                  -7.559
REMARK INTRA:                  -0.435
REMARK UNBOUND:                -0.215
REMARK SMILES Cc1cc(C)c(OC[C@@H](O)C[N+](C)(C)C)c(C)c1
REMARK SMILES IDX 8 1 7 2 6 3 2 4 3 5 18 6 4 7 16 8 1 9 5 10 17 11 9 12 10 13
REMARK SMILES IDX 11 15 12 16 13 17 14 18 15 19
REMARK H PARENT 10 14
ROOT
ATOM      1  C   UNL     1      25.135   1.996  51.642  1.00  0.00    +0.267 C 
ENDROOT
BRANCH   1   2
ATOM      2  O   UNL     1      24.411   2.146  52.875  1.00  0.00    -0.490 OA
BRANCH   2   3
ATOM      3  C   UNL     1      23.155   1.602  52.777  1.00  0.00    +0.125 A 
ATOM      4  C   UNL     1      20.567   0.553  52.569  1.00  0.00    -0.050 A 
ATOM      5  C   UNL     1      21.635  -0.262  52.968  1.00  0.00    +0.010 A 
ATOM      6  C   UNL     1      20.809   1.903  52.280  1.00  0.00    +0.010 A 
ATOM      7  C   UNL     1      22.932   0.255  53.104  1.00  0.00    -0.008 A 
ATOM      8  C   UNL     1      22.095   2.446  52.403  1.00  0.00    -0.008 A 
ATOM      9  C   UNL     1      19.188  -0.022  52.416  1.00  0.00    +0.044 C 
ATOM     10  C   UNL     1      24.035  -0.653  53.571  1.00  0.00    +0.048 C 
ATOM     11  C   UNL     1      22.315   3.900  52.096  1.00  0.00    +0.048 C 
ENDBRANCH   2   3
ENDBRANCH   1   2
BRANCH   1  12
ATOM     12  C   UNL     1      26.623   1.896  52.012  1.00  0.00    +0.206 C 
BRANCH  12  13
ATOM     13  O   UNL     1      27.310   3.029  51.465  1.00  0.00    -0.384 OA
ATOM     14  H   UNL     1      26.841   3.260  50.634  1.00  0.00    +0.211 HD
ENDBRANCH  12  13
BRANCH  12  15
ATOM     15  C   UNL     1      26.793   1.865  53.544  1.00  0.00    +0.299 C 
BRANCH  15  16
ATOM     16  N   UNL     1      27.718   0.734  54.080  1.00  0.00    -0.329 N 
ATOM     17  C   UNL     1      29.141   1.232  54.284  1.00  0.00    +0.334 C 
ATOM     18  C   UNL     1      27.192   0.155  55.394  1.00  0.00    +0.334 C 
ATOM     19  C   UNL     1      27.737  -0.385  53.039  1.00  0.00    +0.334 C 
ENDBRANCH  15  16
ENDBRANCH  12  15
ENDBRANCH   1  12
TORSDOF 6
ENDMDL
MODEL 5
REMARK VINA RESULT:    -5.874      1.870      3.375
REMARK INTER + INTRA:          -7.978
REMARK INTER:                  -7.636
REMARK INTRA:                  -0.342
REMARK UNBOUND:                -0.215
REMARK SMILES Cc1cc(C)c(OC[C@@H](O)C[N+](C)(C)C)c(C)c1
REMARK SMILES IDX 8 1 7 2 6 3 2 4 3 5 18 6 4 7 16 8 1 9 5 10 17 11 9 12 10 13
REMARK SMILES IDX 11 15 12 16 13 17 14 18 15 19
REMARK H PARENT 10 14
ROOT
ATOM      1  C   UNL     1      23.183   1.938  52.533  1.00  0.00    +0.267 C 
ENDROOT
BRANCH   1   2
ATOM      2  O   UNL     1      22.937   0.554  52.230  1.00  0.00    -0.490 OA
BRANCH   2   3
ATOM      3  C   UNL     1      21.591   0.288  52.207  1.00  0.00    +0.125 A 
ATOM      4  C   UNL     1      18.850  -0.285  52.217  1.00  0.00    -0.050 A 
ATOM      5  C   UNL     1      19.466   0.219  51.064  1.00  0.00    +0.010 A 
ATOM      6  C   UNL     1      19.623  -0.505  53.365  1.00  0.00    +0.010 A 
ATOM      7  C   UNL     1      20.844   0.484  51.034  1.00  0.00    -0.008 A 
ATOM      8  C   UNL     1      21.000  -0.244  53.366  1.00  0.00    -0.008 A 
ATOM      9  C   UNL     1      17.371  -0.550  52.235  1.00  0.00    +0.044 C 
ATOM     10  C   UNL     1      21.463   0.989  49.762  1.00  0.00    +0.048 C 
ATOM     11  C   UNL     1      21.800  -0.502  54.612  1.00  0.00    +0.048 C 
ENDBRANCH   2   3
ENDBRANCH   1   2
BRANCH   1  12
ATOM     12  C   UNL     1      24.682   2.061  52.846  1.00  0.00    +0.206 C 
BRANCH  12  13
ATOM     13  O   UNL     1      24.891   3.233  53.644  1.00  0.00    -0.384 OA
ATOM     14  H   UNL     1      24.953   3.986  53.016  1.00  0.00    +0.211 HD
ENDBRANCH  12  13
BRANCH  12  15
ATOM     15  C   UNL     1      25.176   0.813  53.604  1.00  0.00    +0.299 C 
BRANCH  15  16
ATOM     16  N   UNL     1      26.525   0.226  53.095  1.00  0.00    -0.329 N 
ATOM     17  C   UNL     1      27.651   0.485  54.084  1.00  0.00    +0.334 C 
ATOM     18  C   UNL     1      26.419  -1.278  52.833  1.00  0.00    +0.334 C 
ATOM     19  C   UNL     1      26.866   0.917  51.775  1.00  0.00    +0.334 C 
ENDBRANCH  15  16
ENDBRANCH  12  15
ENDBRANCH   1  12
TORSDOF 6
ENDMDL
MODEL 6
REMARK VINA RESULT:    -5.830      1.804      2.589
REMARK INTER + INTRA:          -7.920
REMARK INTER:                  -7.647
REMARK INTRA:                  -0.273
REMARK UNBOUND:                -0.215
REMARK SMILES Cc1cc(C)c(OC[C@@H](O)C[N+](C)(C)C)c(C)c1
REMARK SMILES IDX 8 1 7 2 6 3 2 4 3 5 18 6 4 7 16 8 1 9 5 10 17 11 9 12 10 13
REMARK SMILES IDX 11 15 12 16 13 17 14 18 15 19
REMARK H PARENT 10 14
ROOT
ATOM      1  C   UNL     1      23.464   1.787  52.812  1.00  0.00    +0.267 C 
ENDROOT
BRANCH   1   2
ATOM      2  O   UNL     1      23.171   0.450  52.373  1.00  0.00    -0.490 OA
BRANCH   2   3
ATOM      3  C   UNL     1      21.819   0.217  52.375  1.00  0.00    +0.125 A 
ATOM      4  C   UNL     1      19.054  -0.226  52.322  1.00  0.00    -0.050 A 
ATOM      5  C   UNL     1      19.800  -0.526  53.470  1.00  0.00    +0.010 A 
ATOM      6  C   UNL     1      19.707   0.304  51.202  1.00  0.00    +0.010 A 
ATOM      7  C   UNL     1      21.182  -0.284  53.522  1.00  0.00    -0.008 A 
ATOM      8  C   UNL     1      21.087   0.552  51.223  1.00  0.00    -0.008 A 
ATOM      9  C   UNL     1      17.579  -0.506  52.280  1.00  0.00    +0.044 C 
ATOM     10  C   UNL     1      21.929  -0.588  54.789  1.00  0.00    +0.048 C 
ATOM     11  C   UNL     1      21.752   1.132  50.007  1.00  0.00    +0.048 C 
ENDBRANCH   2   3
ENDBRANCH   1   2
BRANCH   1  12
ATOM     12  C   UNL     1      24.936   2.055  52.462  1.00  0.00    +0.206 C 
BRANCH  12  13
ATOM     13  O   UNL     1      25.067   3.418  52.036  1.00  0.00    -0.384 OA
ATOM     14  H   UNL     1      24.235   3.639  51.564  1.00  0.00    +0.211 HD
ENDBRANCH  12  13
BRANCH  12  15
ATOM     15  C   UNL     1      25.834   1.797  53.688  1.00  0.00    +0.299 C 
BRANCH  15  16
ATOM     16  N   UNL     1      26.497   0.389  53.732  1.00  0.00    -0.329 N 
ATOM     17  C   UNL     1      25.694  -0.575  54.592  1.00  0.00    +0.334 C 
ATOM     18  C   UNL     1      26.657  -0.199  52.329  1.00  0.00    +0.334 C 
ATOM     19  C   UNL     1      27.888   0.547  54.345  1.00  0.00    +0.334 C 
ENDBRANCH  15  16
ENDBRANCH  12  15
ENDBRANCH   1  12
TORSDOF 6
ENDMDL
MODEL 7
REMARK VINA RESULT:    -5.798      1.805      3.045
REMARK INTER + INTRA:          -7.877
REMARK INTER:                  -7.533
REMARK INTRA:                  -0.345
REMARK UNBOUND:                -0.215
REMARK SMILES Cc1cc(C)c(OC[C@@H](O)C[N+](C)(C)C)c(C)c1
REMARK SMILES IDX 8 1 7 2 6 3 2 4 3 5 18 6 4 7 16 8 1 9 5 10 17 11 9 12 10 13
REMARK SMILES IDX 11 15 12 16 13 17 14 18 15 19
REMARK H PARENT 10 14
ROOT
ATOM      1  C   UNL     1      25.089   2.201  51.836  1.00  0.00    +0.267 C 
ENDROOT
BRANCH   1   2
ATOM      2  O   UNL     1      24.366   2.161  53.078  1.00  0.00    -0.490 OA
BRANCH   2   3
ATOM      3  C   UNL     1      23.109   1.640  52.898  1.00  0.00    +0.125 A 
ATOM      4  C   UNL     1      20.569   0.517  52.541  1.00  0.00    -0.050 A 
ATOM      5  C   UNL     1      20.796   1.869  52.250  1.00  0.00    +0.010 A 
ATOM      6  C   UNL     1      21.631  -0.269  53.008  1.00  0.00    +0.010 A 
ATOM      7  C   UNL     1      22.069   2.439  52.397  1.00  0.00    -0.008 A 
ATOM      8  C   UNL     1      22.913   0.275  53.169  1.00  0.00    -0.008 A 
ATOM      9  C   UNL     1      19.196  -0.073  52.391  1.00  0.00    +0.044 C 
ATOM     10  C   UNL     1      22.268   3.884  52.036  1.00  0.00    +0.048 C 
ATOM     11  C   UNL     1      24.030  -0.600  53.661  1.00  0.00    +0.048 C 
ENDBRANCH   2   3
ENDBRANCH   1   2
BRANCH   1  12
ATOM     12  C   UNL     1      26.558   1.895  52.170  1.00  0.00    +0.206 C 
BRANCH  12  13
ATOM     13  O   UNL     1      27.381   2.927  51.611  1.00  0.00    -0.384 OA
ATOM     14  H   UNL     1      28.200   2.949  52.153  1.00  0.00    +0.211 HD
ENDBRANCH  12  13
BRANCH  12  15
ATOM     15  C   UNL     1      26.757   1.832  53.698  1.00  0.00    +0.299 C 
BRANCH  15  16
ATOM     16  N   UNL     1      27.712   0.705  54.189  1.00  0.00    -0.329 N 
ATOM     17  C   UNL     1      29.142   1.207  54.318  1.00  0.00    +0.334 C 
ATOM     18  C   UNL     1      27.256   0.129  55.531  1.00  0.00    +0.334 C 
ATOM     19  C   UNL     1      27.682  -0.417  53.152  1.00  0.00    +0.334 C 
ENDBRANCH  15  16
ENDBRANCH  12  15
ENDBRANCH   1  12
TORSDOF 6
ENDMDL
MODEL 8
REMARK VINA RESULT:    -5.663      3.529      6.785
REMARK INTER + INTRA:          -7.699
REMARK INTER:                  -7.434
REMARK INTRA:                  -0.265
REMARK UNBOUND:                -0.215
REMARK SMILES Cc1cc(C)c(OC[C@@H](O)C[N+](C)(C)C)c(C)c1
REMARK SMILES IDX 8 1 7 2 6 3 2 4 3 5 18 6 4 7 16 8 1 9 5 10 17 11 9 12 10 13
REMARK SMILES IDX 11 15 12 16 13 17 14 18 15 19
REMARK H PARENT 10 14
ROOT
ATOM      1  C   UNL     1      23.933   3.445  52.944  1.00  0.00    +0.267 C 
ENDROOT
BRANCH   1   2
ATOM      2  O   UNL     1      23.742   2.390  51.986  1.00  0.00    -0.490 OA
BRANCH   2   3
ATOM      3  C   UNL     1      24.649   1.378  52.182  1.00  0.00    +0.125 A 
ATOM      4  C   UNL     1      26.458  -0.713  52.625  1.00  0.00    -0.050 A 
ATOM      5  C   UNL     1      26.842   0.416  51.888  1.00  0.00    +0.010 A 
ATOM      6  C   UNL     1      25.158  -0.781  53.142  1.00  0.00    +0.010 A 
ATOM      7  C   UNL     1      25.956   1.484  51.682  1.00  0.00    -0.008 A 
ATOM      8  C   UNL     1      24.250   0.269  52.948  1.00  0.00    -0.008 A 
ATOM      9  C   UNL     1      27.415  -1.853  52.823  1.00  0.00    +0.044 C 
ATOM     10  C   UNL     1      26.430   2.687  50.917  1.00  0.00    +0.048 C 
ATOM     11  C   UNL     1      22.867   0.167  53.528  1.00  0.00    +0.048 C 
ENDBRANCH   2   3
ENDBRANCH   1   2
BRANCH   1  12
ATOM     12  C   UNL     1      23.162   4.664  52.417  1.00  0.00    +0.206 C 
BRANCH  12  13
ATOM     13  O   UNL     1      23.928   5.846  52.688  1.00  0.00    -0.384 OA
ATOM     14  H   UNL     1      23.836   6.420  51.897  1.00  0.00    +0.211 HD
ENDBRANCH  12  13
BRANCH  12  15
ATOM     15  C   UNL     1      22.919   4.530  50.900  1.00  0.00    +0.299 C 
BRANCH  15  16
ATOM     16  N   UNL     1      21.423   4.545  50.470  1.00  0.00    -0.329 N 
ATOM     17  C   UNL     1      20.965   5.949  50.104  1.00  0.00    +0.334 C 
ATOM     18  C   UNL     1      21.170   3.607  49.289  1.00  0.00    +0.334 C 
ATOM     19  C   UNL     1      20.592   4.055  51.655  1.00  0.00    +0.334 C 
ENDBRANCH  15  16
ENDBRANCH  12  15
ENDBRANCH   1  12
TORSDOF 6
ENDMDL
MODEL 9
REMARK VINA RESULT:    -5.642      3.973      6.785
REMARK INTER + INTRA:          -7.671
REMARK INTER:                  -7.311
REMARK INTRA:                  -0.360
REMARK UNBOUND:                -0.215
REMARK SMILES Cc1cc(C)c(OC[C@@H](O)C[N+](C)(C)C)c(C)c1
REMARK SMILES IDX 8 1 7 2 6 3 2 4 3 5 18 6 4 7 16 8 1 9 5 10 17 11 9 12 10 13
REMARK SMILES IDX 11 15 12 16 13 17 14 18 15 19
REMARK H PARENT 10 14
ROOT
ATOM      1  C   UNL     1      23.839   4.009  52.705  1.00  0.00    +0.267 C 
ENDROOT
BRANCH   1   2
ATOM      2  O   UNL     1      23.759   3.010  51.674  1.00  0.00    -0.490 OA
BRANCH   2   3
ATOM      3  C   UNL     1      24.557   1.933  51.969  1.00  0.00    +0.125 A 
ATOM      4  C   UNL     1      26.229  -0.242  52.530  1.00  0.00    -0.050 A 
ATOM      5  C   UNL     1      24.911  -0.218  53.006  1.00  0.00    +0.010 A 
ATOM      6  C   UNL     1      26.700   0.834  51.765  1.00  0.00    +0.010 A 
ATOM      7  C   UNL     1      24.052   0.852  52.709  1.00  0.00    -0.008 A 
ATOM      8  C   UNL     1      25.866   1.918  51.458  1.00  0.00    -0.008 A 
ATOM      9  C   UNL     1      27.138  -1.389  52.869  1.00  0.00    +0.044 C 
ATOM     10  C   UNL     1      22.637   0.812  53.212  1.00  0.00    +0.048 C 
ATOM     11  C   UNL     1      26.401   3.048  50.625  1.00  0.00    +0.048 C 
ENDBRANCH   2   3
ENDBRANCH   1   2
BRANCH   1  12
ATOM     12  C   UNL     1      23.401   5.337  52.068  1.00  0.00    +0.206 C 
BRANCH  12  13
ATOM     13  O   UNL     1      24.311   6.366  52.478  1.00  0.00    -0.384 OA
ATOM     14  H   UNL     1      24.501   6.202  53.428  1.00  0.00    +0.211 HD
ENDBRANCH  12  13
BRANCH  12  15
ATOM     15  C   UNL     1      23.397   5.218  50.531  1.00  0.00    +0.299 C 
BRANCH  15  16
ATOM     16  N   UNL     1      22.060   5.624  49.845  1.00  0.00    -0.329 N 
ATOM     17  C   UNL     1      21.992   7.124  49.606  1.00  0.00    +0.334 C 
ATOM     18  C   UNL     1      21.867   4.892  48.515  1.00  0.00    +0.334 C 
ATOM     19  C   UNL     1      20.917   5.227  50.778  1.00  0.00    +0.334 C 
ENDBRANCH  15  16
ENDBRANCH  12  15
ENDBRANCH   1  12
TORSDOF 6
ENDMDL
