MODEL 1
REMARK VINA RESULT:    -7.771      0.000      0.000
REMARK INTER + INTRA:         -10.023
REMARK INTER:                  -8.906
REMARK INTRA:                  -1.117
REMARK UNBOUND:                -1.117
REMARK SMILES N#CC(C#N)=C(N)C(C#N)=C1C(=O)Nc2ncnc(-c3ccccn3)c21
REMARK SMILES IDX 1 1 2 2 3 3 4 4 5 5 6 6 7 7 8 10 9 11 11 12 10 13 12 14
REMARK SMILES IDX 26 15 13 16 14 17 19 18 15 19 18 20 16 21 17 22 20 24 21 25
REMARK SMILES IDX 25 26 22 27 24 28 23 29
REMARK H PARENT 7 8 7 9 14 23
ROOT
ATOM      1  N   UNL     1      14.628   2.197  49.777  1.00  0.00    -0.192 NA
ATOM      2  C   UNL     1      15.719   2.100  50.163  1.00  0.00    +0.113 C 
ATOM      3  C   UNL     1      17.041   1.933  50.662  1.00  0.00    +0.153 C 
ATOM      4  C   UNL     1      17.601   3.011  51.406  1.00  0.00    +0.113 C 
ATOM      5  N   UNL     1      18.100   3.857  52.025  1.00  0.00    -0.192 NA
ATOM      6  C   UNL     1      17.733   0.784  50.433  1.00  0.00    +0.079 C 
ENDROOT
BRANCH   6   7
ATOM      7  N   UNL     1      17.251  -0.302  49.708  1.00  0.00    -0.396 N 
ATOM      8  H   UNL     1      17.785  -1.170  49.748  1.00  0.00    +0.156 HD
ATOM      9  H   UNL     1      16.877  -0.101  48.782  1.00  0.00    +0.156 HD
ENDBRANCH   6   7
BRANCH   6  10
ATOM     10  C   UNL     1      19.112   0.605  50.942  1.00  0.00    +0.091 C 
ATOM     11  C   UNL     1      20.126   0.948  49.991  1.00  0.00    +0.102 C 
ATOM     12  C   UNL     1      19.409   0.077  52.149  1.00  0.00    +0.073 C 
ATOM     13  N   UNL     1      20.903   1.179  49.161  1.00  0.00    -0.192 NA
ATOM     14  C   UNL     1      18.368  -0.639  52.976  1.00  0.00    +0.259 C 
ATOM     15  C   UNL     1      20.696  -0.164  52.829  1.00  0.00    +0.060 A 
ATOM     16  O   UNL     1      17.162  -0.648  52.825  1.00  0.00    -0.269 OA
ATOM     17  N   UNL     1      19.083  -1.363  53.900  1.00  0.00    -0.306 N 
ATOM     18  C   UNL     1      21.974   0.341  52.839  1.00  0.00    +0.102 A 
ATOM     19  C   UNL     1      20.440  -1.101  53.818  1.00  0.00    +0.145 A 
ATOM     20  N   UNL     1      22.935  -0.216  53.632  1.00  0.00    -0.234 NA
ATOM     21  N   UNL     1      21.322  -1.649  54.653  1.00  0.00    -0.218 NA
ATOM     22  C   UNL     1      22.563  -1.187  54.487  1.00  0.00    +0.225 A 
ATOM     23  H   UNL     1      18.677  -1.973  54.592  1.00  0.00    +0.171 HD
BRANCH  18  24
ATOM     24  C   UNL     1      22.384   1.580  52.155  1.00  0.00    +0.089 A 
ATOM     25  C   UNL     1      23.504   1.629  51.325  1.00  0.00    +0.031 A 
ATOM     26  N   UNL     1      21.644   2.689  52.435  1.00  0.00    -0.255 NA
ATOM     27  C   UNL     1      23.871   2.842  50.749  1.00  0.00    +0.004 A 
ATOM     28  C   UNL     1      22.034   3.855  51.868  1.00  0.00    +0.112 A 
ATOM     29  C   UNL     1      23.125   3.979  51.025  1.00  0.00    +0.020 A 
ENDBRANCH  18  24
ENDBRANCH   6  10
TORSDOF 3
ENDMDL
MODEL 2
REMARK VINA RESULT:    -7.515      3.471      6.244
REMARK INTER + INTRA:          -9.731
REMARK INTER:                  -8.622
REMARK INTRA:                  -1.108
REMARK UNBOUND:                -1.117
REMARK SMILES N#CC(C#N)=C(N)C(C#N)=C1C(=O)Nc2ncnc(-c3ccccn3)c21
REMARK SMILES IDX 1 1 2 2 3 3 4 4 5 5 6 6 7 7 8 10 9 11 11 12 10 13 12 14
REMARK SMILES IDX 26 15 13 16 14 17 19 18 15 19 18 20 16 21 17 22 20 24 21 25
REMARK SMILES IDX 25 26 22 27 24 28 23 29
REMARK H PARENT 7 8 7 9 14 23
ROOT
ATOM      1  N   UNL     1      24.039   6.843  47.550  1.00  0.00    -0.192 NA
ATOM      2  C   UNL     1      23.823   5.921  48.222  1.00  0.00    +0.113 C 
ATOM      3  C   UNL     1      23.613   4.787  49.056  1.00  0.00    +0.153 C 
ATOM      4  C   UNL     1      22.932   3.673  48.487  1.00  0.00    +0.113 C 
ATOM      5  N   UNL     1      22.388   2.736  48.069  1.00  0.00    -0.192 NA
ATOM      6  C   UNL     1      24.050   4.779  50.344  1.00  0.00    +0.079 C 
ENDROOT
BRANCH   6   7
ATOM      7  N   UNL     1      24.712   5.834  50.964  1.00  0.00    -0.396 N 
ATOM      8  H   UNL     1      25.731   5.795  51.000  1.00  0.00    +0.156 HD
ATOM      9  H   UNL     1      24.293   6.195  51.819  1.00  0.00    +0.156 HD
ENDBRANCH   6   7
BRANCH   6  10
ATOM     10  C   UNL     1      23.829   3.607  51.222  1.00  0.00    +0.091 C 
ATOM     11  C   UNL     1      22.604   3.664  51.961  1.00  0.00    +0.102 C 
ATOM     12  C   UNL     1      24.727   2.614  51.397  1.00  0.00    +0.073 C 
ATOM     13  N   UNL     1      21.633   3.795  52.582  1.00  0.00    -0.192 NA
ATOM     14  C   UNL     1      26.158   2.751  50.930  1.00  0.00    +0.259 C 
ATOM     15  C   UNL     1      24.686   1.378  52.201  1.00  0.00    +0.060 A 
ATOM     16  O   UNL     1      26.629   3.585  50.183  1.00  0.00    -0.269 OA
ATOM     17  N   UNL     1      26.848   1.772  51.606  1.00  0.00    -0.306 N 
ATOM     18  C   UNL     1      23.755   0.500  52.705  1.00  0.00    +0.102 A 
ATOM     19  C   UNL     1      26.002   0.973  52.355  1.00  0.00    +0.145 A 
ATOM     20  N   UNL     1      24.145  -0.560  53.472  1.00  0.00    -0.234 NA
ATOM     21  N   UNL     1      26.444  -0.075  53.050  1.00  0.00    -0.218 NA
ATOM     22  C   UNL     1      25.465  -0.785  53.614  1.00  0.00    +0.225 A 
ATOM     23  H   UNL     1      27.840   1.614  51.532  1.00  0.00    +0.171 HD
BRANCH  18  24
ATOM     24  C   UNL     1      22.326   0.510  52.353  1.00  0.00    +0.089 A 
ATOM     25  C   UNL     1      21.892   0.546  51.027  1.00  0.00    +0.031 A 
ATOM     26  N   UNL     1      21.453   0.549  53.399  1.00  0.00    -0.255 NA
ATOM     27  C   UNL     1      20.527   0.607  50.760  1.00  0.00    +0.004 A 
ATOM     28  C   UNL     1      20.133   0.620  53.105  1.00  0.00    +0.112 A 
ATOM     29  C   UNL     1      19.628   0.646  51.817  1.00  0.00    +0.020 A 
ENDBRANCH  18  24
ENDBRANCH   6  10
TORSDOF 3
ENDMDL
MODEL 3
REMARK VINA RESULT:    -7.460      2.620      5.691
REMARK INTER + INTRA:          -9.667
REMARK INTER:                  -8.606
REMARK INTRA:                  -1.062
REMARK UNBOUND:                -1.117
REMARK SMILES N#CC(C#N)=C(N)C(C#N)=C1C(=O)Nc2ncnc(-c3ccccn3)c21
REMARK SMILES IDX 1 1 2 2 3 3 4 4 5 5 6 6 7 7 8 10 9 11 11 12 10 13 12 14
REMARK SMILES IDX 26 15 13 16 14 17 19 18 15 19 18 20 16 21 17 22 20 24 21 25
REMARK SMILES IDX 25 26 22 27 24 28 23 29
REMARK H PARENT 7 8 7 9 14 23
ROOT
ATOM      1  N   UNL     1      25.390   6.365  49.956  1.00  0.00    -0.192 NA
ATOM      2  C   UNL     1      24.703   5.474  50.247  1.00  0.00    +0.113 C 
ATOM      3  C   UNL     1      23.901   4.367  50.641  1.00  0.00    +0.153 C 
ATOM      4  C   UNL     1      23.498   3.455  49.624  1.00  0.00    +0.113 C 
ATOM      5  N   UNL     1      23.149   2.679  48.834  1.00  0.00    -0.192 NA
ATOM      6  C   UNL     1      23.539   4.196  51.942  1.00  0.00    +0.079 C 
ENDROOT
BRANCH   6   7
ATOM      7  N   UNL     1      23.890   5.052  52.981  1.00  0.00    -0.396 N 
ATOM      8  H   UNL     1      24.172   4.628  53.865  1.00  0.00    +0.156 HD
ATOM      9  H   UNL     1      23.315   5.885  53.099  1.00  0.00    +0.156 HD
ENDBRANCH   6   7
BRANCH   6  10
ATOM     10  C   UNL     1      22.697   3.052  52.360  1.00  0.00    +0.091 C 
ATOM     11  C   UNL     1      21.296   3.342  52.373  1.00  0.00    +0.102 C 
ATOM     12  C   UNL     1      23.189   1.868  52.786  1.00  0.00    +0.073 C 
ATOM     13  N   UNL     1      20.179   3.653  52.427  1.00  0.00    -0.192 NA
ATOM     14  C   UNL     1      24.648   1.701  53.142  1.00  0.00    +0.259 C 
ATOM     15  C   UNL     1      22.525   0.626  53.222  1.00  0.00    +0.060 A 
ATOM     16  O   UNL     1      25.572   2.451  52.899  1.00  0.00    -0.269 OA
ATOM     17  N   UNL     1      24.702   0.546  53.886  1.00  0.00    -0.306 N 
ATOM     18  C   UNL     1      21.342  -0.045  53.018  1.00  0.00    +0.102 A 
ATOM     19  C   UNL     1      23.470  -0.083  53.946  1.00  0.00    +0.145 A 
ATOM     20  N   UNL     1      21.085  -1.215  53.672  1.00  0.00    -0.234 NA
ATOM     21  N   UNL     1      23.297  -1.248  54.569  1.00  0.00    -0.218 NA
ATOM     22  C   UNL     1      22.068  -1.748  54.421  1.00  0.00    +0.225 A 
ATOM     23  H   UNL     1      25.539   0.168  54.299  1.00  0.00    +0.171 HD
BRANCH  18  24
ATOM     24  C   UNL     1      20.345   0.320  51.998  1.00  0.00    +0.089 A 
ATOM     25  C   UNL     1      20.706   0.608  50.682  1.00  0.00    +0.031 A 
ATOM     26  N   UNL     1      19.057   0.424  52.432  1.00  0.00    -0.255 NA
ATOM     27  C   UNL     1      19.722   0.998  49.776  1.00  0.00    +0.004 A 
ATOM     28  C   UNL     1      18.127   0.817  51.530  1.00  0.00    +0.112 A 
ATOM     29  C   UNL     1      18.407   1.106  50.206  1.00  0.00    +0.020 A 
ENDBRANCH  18  24
ENDBRANCH   6  10
TORSDOF 3
ENDMDL
MODEL 4
REMARK VINA RESULT:    -7.118      2.215      3.252
REMARK INTER + INTRA:          -9.275
REMARK INTER:                  -8.426
REMARK INTRA:                  -0.850
REMARK UNBOUND:                -1.117
REMARK SMILES N#CC(C#N)=C(N)C(C#N)=C1C(=O)Nc2ncnc(-c3ccccn3)c21
REMARK SMILES IDX 1 1 2 2 3 3 4 4 5 5 6 6 7 7 8 10 9 11 11 12 10 13 12 14
REMARK SMILES IDX 26 15 13 16 14 17 19 18 15 19 18 20 16 21 17 22 20 24 21 25
REMARK SMILES IDX 25 26 22 27 24 28 23 29
REMARK H PARENT 7 8 7 9 14 23
ROOT
ATOM      1  N   UNL     1      17.212   3.298  51.424  1.00  0.00    -0.192 NA
ATOM      2  C   UNL     1      18.367   3.179  51.404  1.00  0.00    +0.113 C 
ATOM      3  C   UNL     1      19.778   2.994  51.419  1.00  0.00    +0.153 C 
ATOM      4  C   UNL     1      20.587   4.143  51.651  1.00  0.00    +0.113 C 
ATOM      5  N   UNL     1      21.291   5.047  51.843  1.00  0.00    -0.192 NA
ATOM      6  C   UNL     1      20.322   1.763  51.221  1.00  0.00    +0.079 C 
ENDROOT
BRANCH   6   7
ATOM      7  N   UNL     1      19.592   0.603  50.980  1.00  0.00    -0.396 N 
ATOM      8  H   UNL     1      20.078  -0.177  50.536  1.00  0.00    +0.156 HD
ATOM      9  H   UNL     1      18.639   0.726  50.644  1.00  0.00    +0.156 HD
ENDBRANCH   6   7
BRANCH   6  10
ATOM     10  C   UNL     1      21.789   1.562  51.227  1.00  0.00    +0.091 C 
ATOM     11  C   UNL     1      22.417   1.863  49.976  1.00  0.00    +0.102 C 
ATOM     12  C   UNL     1      22.477   1.051  52.271  1.00  0.00    +0.073 C 
ATOM     13  N   UNL     1      22.862   2.060  48.923  1.00  0.00    -0.192 NA
ATOM     14  C   UNL     1      21.775   0.376  53.425  1.00  0.00    +0.259 C 
ATOM     15  C   UNL     1      23.916   0.794  52.471  1.00  0.00    +0.060 A 
ATOM     16  O   UNL     1      20.591   0.392  53.700  1.00  0.00    -0.269 OA
ATOM     17  N   UNL     1      22.756  -0.346  54.064  1.00  0.00    -0.306 N 
ATOM     18  C   UNL     1      25.126   1.270  52.026  1.00  0.00    +0.102 A 
ATOM     19  C   UNL     1      24.004  -0.117  53.512  1.00  0.00    +0.145 A 
ATOM     20  N   UNL     1      26.294   0.707  52.453  1.00  0.00    -0.234 NA
ATOM     21  N   UNL     1      25.112  -0.669  54.005  1.00  0.00    -0.218 NA
ATOM     22  C   UNL     1      26.226  -0.239  53.409  1.00  0.00    +0.225 A 
ATOM     23  H   UNL     1      22.604  -0.933  54.869  1.00  0.00    +0.171 HD
BRANCH  18  24
ATOM     24  C   UNL     1      25.293   2.485  51.210  1.00  0.00    +0.089 A 
ATOM     25  C   UNL     1      26.179   2.536  50.134  1.00  0.00    +0.031 A 
ATOM     26  N   UNL     1      24.581   3.575  51.611  1.00  0.00    -0.255 NA
ATOM     27  C   UNL     1      26.331   3.730  49.434  1.00  0.00    +0.004 A 
ATOM     28  C   UNL     1      24.760   4.724  50.916  1.00  0.00    +0.112 A 
ATOM     29  C   UNL     1      25.610   4.847  49.832  1.00  0.00    +0.020 A 
ENDBRANCH  18  24
ENDBRANCH   6  10
TORSDOF 3
ENDMDL
MODEL 5
REMARK VINA RESULT:    -7.111      3.473      5.577
REMARK INTER + INTRA:          -9.268
REMARK INTER:                  -8.422
REMARK INTRA:                  -0.846
REMARK UNBOUND:                -1.117
REMARK SMILES N#CC(C#N)=C(N)C(C#N)=C1C(=O)Nc2ncnc(-c3ccccn3)c21
REMARK SMILES IDX 1 1 2 2 3 3 4 4 5 5 6 6 7 7 8 10 9 11 11 12 10 13 12 14
REMARK SMILES IDX 26 15 13 16 14 17 19 18 15 19 18 20 16 21 17 22 20 24 21 25
REMARK SMILES IDX 25 26 22 27 24 28 23 29
REMARK H PARENT 7 8 7 9 14 23
ROOT
ATOM      1  N   UNL     1      22.905   7.915  49.486  1.00  0.00    -0.192 NA
ATOM      2  C   UNL     1      23.030   6.781  49.705  1.00  0.00    +0.113 C 
ATOM      3  C   UNL     1      23.237   5.401  49.988  1.00  0.00    +0.153 C 
ATOM      4  C   UNL     1      22.964   4.471  48.944  1.00  0.00    +0.113 C 
ATOM      5  N   UNL     1      22.762   3.673  48.126  1.00  0.00    -0.192 NA
ATOM      6  C   UNL     1      23.680   4.999  51.209  1.00  0.00    +0.079 C 
ENDROOT
BRANCH   6   7
ATOM      7  N   UNL     1      23.957   5.852  52.273  1.00  0.00    -0.396 N 
ATOM      8  H   UNL     1      24.647   6.588  52.120  1.00  0.00    +0.156 HD
ATOM      9  H   UNL     1      24.023   5.424  53.195  1.00  0.00    +0.156 HD
ENDBRANCH   6   7
BRANCH   6  10
ATOM     10  C   UNL     1      23.890   3.566  51.515  1.00  0.00    +0.091 C 
ATOM     11  C   UNL     1      25.086   3.024  50.945  1.00  0.00    +0.102 C 
ATOM     12  C   UNL     1      23.002   2.798  52.184  1.00  0.00    +0.073 C 
ATOM     13  N   UNL     1      26.033   2.625  50.406  1.00  0.00    -0.192 NA
ATOM     14  C   UNL     1      21.587   3.263  52.436  1.00  0.00    +0.259 C 
ATOM     15  C   UNL     1      23.037   1.381  52.592  1.00  0.00    +0.060 A 
ATOM     16  O   UNL     1      21.129   4.381  52.309  1.00  0.00    -0.269 OA
ATOM     17  N   UNL     1      20.890   2.123  52.760  1.00  0.00    -0.306 N 
ATOM     18  C   UNL     1      23.963   0.411  52.894  1.00  0.00    +0.102 A 
ATOM     19  C   UNL     1      21.723   1.020  52.845  1.00  0.00    +0.145 A 
ATOM     20  N   UNL     1      23.564  -0.856  53.210  1.00  0.00    -0.234 NA
ATOM     21  N   UNL     1      21.274  -0.184  53.199  1.00  0.00    -0.218 NA
ATOM     22  C   UNL     1      22.244  -1.090  53.334  1.00  0.00    +0.225 A 
ATOM     23  H   UNL     1      19.904   2.091  52.963  1.00  0.00    +0.171 HD
BRANCH  18  24
ATOM     24  C   UNL     1      25.404   0.661  53.066  1.00  0.00    +0.089 A 
ATOM     25  C   UNL     1      26.370  -0.158  52.482  1.00  0.00    +0.031 A 
ATOM     26  N   UNL     1      25.736   1.701  53.882  1.00  0.00    -0.255 NA
ATOM     27  C   UNL     1      27.717   0.100  52.725  1.00  0.00    +0.004 A 
ATOM     28  C   UNL     1      27.054   1.918  54.106  1.00  0.00    +0.112 A 
ATOM     29  C   UNL     1      28.069   1.156  53.553  1.00  0.00    +0.020 A 
ENDBRANCH  18  24
ENDBRANCH   6  10
TORSDOF 3
ENDMDL
MODEL 6
REMARK VINA RESULT:    -6.999      3.163      6.668
REMARK INTER + INTRA:          -9.139
REMARK INTER:                  -8.158
REMARK INTRA:                  -0.981
REMARK UNBOUND:                -1.117
REMARK SMILES N#CC(C#N)=C(N)C(C#N)=C1C(=O)Nc2ncnc(-c3ccccn3)c21
REMARK SMILES IDX 1 1 2 2 3 3 4 4 5 5 6 6 7 7 8 10 9 11 11 12 10 13 12 14
REMARK SMILES IDX 26 15 13 16 14 17 19 18 15 19 18 20 16 21 17 22 20 24 21 25
REMARK SMILES IDX 25 26 22 27 24 28 23 29
REMARK H PARENT 7 8 7 9 14 23
ROOT
ATOM      1  N   UNL     1      29.285   1.770  53.207  1.00  0.00    -0.192 NA
ATOM      2  C   UNL     1      28.186   1.972  52.892  1.00  0.00    +0.113 C 
ATOM      3  C   UNL     1      26.825   2.169  52.525  1.00  0.00    +0.153 C 
ATOM      4  C   UNL     1      26.557   2.526  51.172  1.00  0.00    +0.113 C 
ATOM      5  N   UNL     1      26.284   2.811  50.080  1.00  0.00    -0.192 NA
ATOM      6  C   UNL     1      25.828   2.017  53.438  1.00  0.00    +0.079 C 
ENDROOT
BRANCH   6   7
ATOM      7  N   UNL     1      26.020   1.680  54.774  1.00  0.00    -0.396 N 
ATOM      8  H   UNL     1      25.943   2.427  55.464  1.00  0.00    +0.156 HD
ATOM      9  H   UNL     1      26.772   1.022  54.974  1.00  0.00    +0.156 HD
ENDBRANCH   6   7
BRANCH   6  10
ATOM     10  C   UNL     1      24.410   2.228  53.066  1.00  0.00    +0.091 C 
ATOM     11  C   UNL     1      24.007   3.602  53.082  1.00  0.00    +0.102 C 
ATOM     12  C   UNL     1      23.535   1.227  52.827  1.00  0.00    +0.073 C 
ATOM     13  N   UNL     1      23.722   4.722  53.175  1.00  0.00    -0.192 NA
ATOM     14  C   UNL     1      23.853  -0.204  53.191  1.00  0.00    +0.259 C 
ATOM     15  C   UNL     1      22.113   1.234  52.436  1.00  0.00    +0.060 A 
ATOM     16  O   UNL     1      24.927  -0.681  53.501  1.00  0.00    -0.269 OA
ATOM     17  N   UNL     1      22.640  -0.852  53.183  1.00  0.00    -0.306 N 
ATOM     18  C   UNL     1      21.224   2.045  51.770  1.00  0.00    +0.102 A 
ATOM     19  C   UNL     1      21.619  -0.021  52.753  1.00  0.00    +0.145 A 
ATOM     20  N   UNL     1      19.914   1.684  51.645  1.00  0.00    -0.234 NA
ATOM     21  N   UNL     1      20.365  -0.450  52.614  1.00  0.00    -0.218 NA
ATOM     22  C   UNL     1      19.551   0.463  52.083  1.00  0.00    +0.225 A 
ATOM     23  H   UNL     1      22.507  -1.824  53.410  1.00  0.00    +0.171 HD
BRANCH  18  24
ATOM     24  C   UNL     1      21.604   3.250  51.014  1.00  0.00    +0.089 A 
ATOM     25  C   UNL     1      20.980   4.480  51.223  1.00  0.00    +0.031 A 
ATOM     26  N   UNL     1      22.554   3.076  50.052  1.00  0.00    -0.255 NA
ATOM     27  C   UNL     1      21.347   5.571  50.439  1.00  0.00    +0.004 A 
ATOM     28  C   UNL     1      22.879   4.154  49.299  1.00  0.00    +0.112 A 
ATOM     29  C   UNL     1      22.314   5.407  49.456  1.00  0.00    +0.020 A 
ENDBRANCH  18  24
ENDBRANCH   6  10
TORSDOF 3
ENDMDL
MODEL 7
REMARK VINA RESULT:    -6.890      3.388      5.935
REMARK INTER + INTRA:          -9.014
REMARK INTER:                  -7.887
REMARK INTRA:                  -1.127
REMARK UNBOUND:                -1.117
REMARK SMILES N#CC(C#N)=C(N)C(C#N)=C1C(=O)Nc2ncnc(-c3ccccn3)c21
REMARK SMILES IDX 1 1 2 2 3 3 4 4 5 5 6 6 7 7 8 10 9 11 11 12 10 13 12 14
REMARK SMILES IDX 26 15 13 16 14 17 19 18 15 19 18 20 16 21 17 22 20 24 21 25
REMARK SMILES IDX 25 26 22 27 24 28 23 29
REMARK H PARENT 7 8 7 9 14 23
ROOT
ATOM      1  N   UNL     1      20.663   8.078  48.221  1.00  0.00    -0.192 NA
ATOM      2  C   UNL     1      20.946   7.060  48.704  1.00  0.00    +0.113 C 
ATOM      3  C   UNL     1      21.346   5.832  49.301  1.00  0.00    +0.153 C 
ATOM      4  C   UNL     1      21.086   4.635  48.573  1.00  0.00    +0.113 C 
ATOM      5  N   UNL     1      20.904   3.632  48.018  1.00  0.00    -0.192 NA
ATOM      6  C   UNL     1      21.953   5.814  50.518  1.00  0.00    +0.079 C 
ENDROOT
BRANCH   6   7
ATOM      7  N   UNL     1      22.229   6.942  51.285  1.00  0.00    -0.396 N 
ATOM      8  H   UNL     1      22.516   6.796  52.252  1.00  0.00    +0.156 HD
ATOM      9  H   UNL     1      21.602   7.736  51.167  1.00  0.00    +0.156 HD
ENDBRANCH   6   7
BRANCH   6  10
ATOM     10  C   UNL     1      22.366   4.540  51.151  1.00  0.00    +0.091 C 
ATOM     11  C   UNL     1      21.379   3.986  52.028  1.00  0.00    +0.102 C 
ATOM     12  C   UNL     1      23.588   3.985  51.005  1.00  0.00    +0.073 C 
ATOM     13  N   UNL     1      20.570   3.619  52.774  1.00  0.00    -0.192 NA
ATOM     14  C   UNL     1      24.741   4.758  50.409  1.00  0.00    +0.259 C 
ATOM     15  C   UNL     1      24.173   2.737  51.531  1.00  0.00    +0.060 A 
ATOM     16  O   UNL     1      24.707   5.810  49.802  1.00  0.00    -0.269 OA
ATOM     17  N   UNL     1      25.866   4.059  50.776  1.00  0.00    -0.306 N 
ATOM     18  C   UNL     1      23.760   1.493  51.948  1.00  0.00    +0.102 A 
ATOM     19  C   UNL     1      25.548   2.885  51.437  1.00  0.00    +0.145 A 
ATOM     20  N   UNL     1      24.662   0.585  52.422  1.00  0.00    -0.234 NA
ATOM     21  N   UNL     1      26.478   2.020  51.839  1.00  0.00    -0.218 NA
ATOM     22  C   UNL     1      25.970   0.899  52.354  1.00  0.00    +0.225 A 
ATOM     23  H   UNL     1      26.810   4.331  50.551  1.00  0.00    +0.171 HD
BRANCH  18  24
ATOM     24  C   UNL     1      22.394   0.971  51.780  1.00  0.00    +0.089 A 
ATOM     25  C   UNL     1      21.740   0.996  50.548  1.00  0.00    +0.031 A 
ATOM     26  N   UNL     1      21.782   0.524  52.913  1.00  0.00    -0.255 NA
ATOM     27  C   UNL     1      20.428   0.535  50.464  1.00  0.00    +0.004 A 
ATOM     28  C   UNL     1      20.503   0.094  52.799  1.00  0.00    +0.112 A 
ATOM     29  C   UNL     1      19.795   0.076  51.611  1.00  0.00    +0.020 A 
ENDBRANCH  18  24
ENDBRANCH   6  10
TORSDOF 3
ENDMDL
MODEL 8
REMARK VINA RESULT:    -6.883      2.688      6.629
REMARK INTER + INTRA:          -9.006
REMARK INTER:                  -7.951
REMARK INTRA:                  -1.054
REMARK UNBOUND:                -1.117
REMARK SMILES N#CC(C#N)=C(N)C(C#N)=C1C(=O)Nc2ncnc(-c3ccccn3)c21
REMARK SMILES IDX 1 1 2 2 3 3 4 4 5 5 6 6 7 7 8 10 9 11 11 12 10 13 12 14
REMARK SMILES IDX 26 15 13 16 14 17 19 18 15 19 18 20 16 21 17 22 20 24 21 25
REMARK SMILES IDX 25 26 22 27 24 28 23 29
REMARK H PARENT 7 8 7 9 14 23
ROOT
ATOM      1  N   UNL     1      25.008  -1.250  54.825  1.00  0.00    -0.192 NA
ATOM      2  C   UNL     1      24.245  -0.595  54.244  1.00  0.00    +0.113 C 
ATOM      3  C   UNL     1      23.343   0.252  53.541  1.00  0.00    +0.153 C 
ATOM      4  C   UNL     1      21.989   0.277  53.983  1.00  0.00    +0.113 C 
ATOM      5  N   UNL     1      20.876   0.340  54.308  1.00  0.00    -0.192 NA
ATOM      6  C   UNL     1      23.769   1.004  52.491  1.00  0.00    +0.079 C 
ENDROOT
BRANCH   6   7
ATOM      7  N   UNL     1      25.072   1.020  52.002  1.00  0.00    -0.396 N 
ATOM      8  H   UNL     1      25.808   0.663  52.612  1.00  0.00    +0.156 HD
ATOM      9  H   UNL     1      25.351   1.846  51.476  1.00  0.00    +0.156 HD
ENDBRANCH   6   7
BRANCH   6  10
ATOM     10  C   UNL     1      22.836   1.882  51.748  1.00  0.00    +0.091 C 
ATOM     11  C   UNL     1      22.123   1.213  50.702  1.00  0.00    +0.102 C 
ATOM     12  C   UNL     1      22.723   3.212  51.956  1.00  0.00    +0.073 C 
ATOM     13  N   UNL     1      21.624   0.634  49.829  1.00  0.00    -0.192 NA
ATOM     14  C   UNL     1      23.741   3.973  52.771  1.00  0.00    +0.259 C 
ATOM     15  C   UNL     1      21.857   4.235  51.340  1.00  0.00    +0.060 A 
ATOM     16  O   UNL     1      24.605   3.529  53.502  1.00  0.00    -0.269 OA
ATOM     17  N   UNL     1      23.544   5.294  52.444  1.00  0.00    -0.306 N 
ATOM     18  C   UNL     1      20.632   4.321  50.723  1.00  0.00    +0.102 A 
ATOM     19  C   UNL     1      22.455   5.457  51.605  1.00  0.00    +0.145 A 
ATOM     20  N   UNL     1      20.181   5.515  50.238  1.00  0.00    -0.234 NA
ATOM     21  N   UNL     1      22.042   6.658  51.200  1.00  0.00    -0.218 NA
ATOM     22  C   UNL     1      20.913   6.616  50.491  1.00  0.00    +0.225 A 
ATOM     23  H   UNL     1      24.086   6.062  52.805  1.00  0.00    +0.171 HD
BRANCH  18  24
ATOM     24  C   UNL     1      19.649   3.226  50.668  1.00  0.00    +0.089 A 
ATOM     25  C   UNL     1      19.257   2.528  51.811  1.00  0.00    +0.031 A 
ATOM     26  N   UNL     1      19.195   2.892  49.427  1.00  0.00    -0.255 NA
ATOM     27  C   UNL     1      18.363   1.468  51.687  1.00  0.00    +0.004 A 
ATOM     28  C   UNL     1      18.336   1.849  49.340  1.00  0.00    +0.112 A 
ATOM     29  C   UNL     1      17.893   1.118  50.429  1.00  0.00    +0.020 A 
ENDBRANCH  18  24
ENDBRANCH   6  10
TORSDOF 3
ENDMDL
MODEL 9
REMARK VINA RESULT:    -6.459      3.286      6.462
REMARK INTER + INTRA:          -8.520
REMARK INTER:                  -7.592
REMARK INTRA:                  -0.928
REMARK UNBOUND:                -1.117
REMARK SMILES N#CC(C#N)=C(N)C(C#N)=C1C(=O)Nc2ncnc(-c3ccccn3)c21
REMARK SMILES IDX 1 1 2 2 3 3 4 4 5 5 6 6 7 7 8 10 9 11 11 12 10 13 12 14
REMARK SMILES IDX 26 15 13 16 14 17 19 18 15 19 18 20 16 21 17 22 20 24 21 25
REMARK SMILES IDX 25 26 22 27 24 28 23 29
REMARK H PARENT 7 8 7 9 14 23
ROOT
ATOM      1  N   UNL     1      25.134  -0.891  54.637  1.00  0.00    -0.192 NA
ATOM      2  C   UNL     1      24.897  -0.071  53.849  1.00  0.00    +0.113 C 
ATOM      3  C   UNL     1      24.566   0.900  52.863  1.00  0.00    +0.153 C 
ATOM      4  C   UNL     1      25.615   1.356  52.015  1.00  0.00    +0.113 C 
ATOM      5  N   UNL     1      26.432   1.756  51.294  1.00  0.00    -0.192 NA
ATOM      6  C   UNL     1      23.293   1.367  52.745  1.00  0.00    +0.079 C 
ENDROOT
BRANCH   6   7
ATOM      7  N   UNL     1      22.225   0.971  53.544  1.00  0.00    -0.396 N 
ATOM      8  H   UNL     1      21.928  -0.003  53.485  1.00  0.00    +0.156 HD
ATOM      9  H   UNL     1      21.448   1.626  53.622  1.00  0.00    +0.156 HD
ENDBRANCH   6   7
BRANCH   6  10
ATOM     10  C   UNL     1      22.941   2.383  51.727  1.00  0.00    +0.091 C 
ATOM     11  C   UNL     1      23.281   3.721  52.107  1.00  0.00    +0.102 C 
ATOM     12  C   UNL     1      22.274   2.110  50.585  1.00  0.00    +0.073 C 
ATOM     13  N   UNL     1      23.520   4.788  52.495  1.00  0.00    -0.192 NA
ATOM     14  C   UNL     1      21.579   0.785  50.374  1.00  0.00    +0.259 C 
ATOM     15  C   UNL     1      21.852   2.966  49.461  1.00  0.00    +0.060 A 
ATOM     16  O   UNL     1      21.694  -0.237  51.021  1.00  0.00    -0.269 OA
ATOM     17  N   UNL     1      20.707   1.003  49.333  1.00  0.00    -0.306 N 
ATOM     18  C   UNL     1      22.236   4.136  48.847  1.00  0.00    +0.102 A 
ATOM     19  C   UNL     1      20.852   2.272  48.800  1.00  0.00    +0.145 A 
ATOM     20  N   UNL     1      21.520   4.637  47.799  1.00  0.00    -0.234 NA
ATOM     21  N   UNL     1      20.147   2.685  47.747  1.00  0.00    -0.218 NA
ATOM     22  C   UNL     1      20.509   3.894  47.312  1.00  0.00    +0.225 A 
ATOM     23  H   UNL     1      20.072   0.313  48.962  1.00  0.00    +0.171 HD
BRANCH  18  24
ATOM     24  C   UNL     1      23.492   4.850  49.130  1.00  0.00    +0.089 A 
ATOM     25  C   UNL     1      24.731   4.209  49.094  1.00  0.00    +0.031 A 
ATOM     26  N   UNL     1      23.367   6.157  49.494  1.00  0.00    -0.255 NA
ATOM     27  C   UNL     1      25.878   4.926  49.423  1.00  0.00    +0.004 A 
ATOM     28  C   UNL     1      24.501   6.823  49.819  1.00  0.00    +0.112 A 
ATOM     29  C   UNL     1      25.764   6.258  49.794  1.00  0.00    +0.020 A 
ENDBRANCH  18  24
ENDBRANCH   6  10
TORSDOF 3
ENDMDL
