REMARK SMILES C[N+](C)(C)C[C@@H](O)COc1ccc(-c2ccc(F)c(Cl)c2)cn1
REMARK SMILES IDX 8 1 6 2 5 3 2 4 1 5 3 6 4 7 7 8 9 10 10 11 11 12 23 13 12 14
REMARK SMILES IDX 22 15 13 16 14 17 15 18 21 19 16 20 19 21 17 22 20 23 18 24
REMARK H PARENT 7 9
ROOT
ATOM      1  C   UNL     1      -1.163   0.075  -0.250  1.00  0.00    +0.269 C 
ENDROOT
BRANCH   1   2
ATOM      2  C   UNL     1      -2.635  -0.320  -0.429  1.00  0.00    +0.206 C 
BRANCH   2   3
ATOM      3  C   UNL     1      -3.544   0.809   0.099  1.00  0.00    +0.299 C 
BRANCH   3   4
ATOM      4  N   UNL     1      -5.064   0.479   0.117  1.00  0.00    -0.329 N 
ATOM      5  C   UNL     1      -5.579   0.135  -1.281  1.00  0.00    +0.334 C 
ATOM      6  C   UNL     1      -5.804   1.727   0.602  1.00  0.00    +0.334 C 
ATOM      7  C   UNL     1      -5.374  -0.669   1.064  1.00  0.00    +0.334 C 
ENDBRANCH   3   4
ENDBRANCH   2   3
BRANCH   2   8
ATOM      8  O   UNL     1      -2.889  -0.546  -1.823  1.00  0.00    -0.384 OA
ATOM      9  H   UNL     1      -2.144  -1.088  -2.158  1.00  0.00    +0.211 HD
ENDBRANCH   2   8
ENDBRANCH   1   2
BRANCH   1  10
ATOM     10  O   UNL     1      -0.367  -1.030  -0.697  1.00  0.00    -0.475 OA
BRANCH  10  11
ATOM     11  C   UNL     1       0.988  -0.792  -0.570  1.00  0.00    +0.213 A 
ATOM     12  C   UNL     1       1.838  -1.789  -1.015  1.00  0.00    +0.069 A 
ATOM     13  N   UNL     1       1.411   0.368  -0.030  1.00  0.00    -0.221 NA
ATOM     14  C   UNL     1       3.213  -1.584  -0.906  1.00  0.00    +0.016 A 
ATOM     15  C   UNL     1       2.755   0.536   0.059  1.00  0.00    +0.123 A 
ATOM     16  C   UNL     1       3.709  -0.395  -0.357  1.00  0.00    +0.000 A 
BRANCH  16  17
ATOM     17  C   UNL     1       5.152  -0.142  -0.230  1.00  0.00    -0.015 A 
ATOM     18  C   UNL     1       5.714   0.255   0.998  1.00  0.00    +0.012 A 
ATOM     19  C   UNL     1       6.011  -0.292  -1.335  1.00  0.00    +0.032 A 
ATOM     20  C   UNL     1       7.086   0.495   1.117  1.00  0.00    +0.041 A 
ATOM     21  C   UNL     1       7.382  -0.051  -1.214  1.00  0.00    +0.077 A 
ATOM     22  C   UNL     1       7.913   0.342   0.010  1.00  0.00    +0.141 A 
ATOM     23 Cl   UNL     1       8.396  -0.242  -2.592  1.00  0.00    -0.081 Cl
ATOM     24  F   UNL     1       9.225   0.578   0.148  1.00  0.00    -0.205 F 
ENDBRANCH  16  17
ENDBRANCH  10  11
ENDBRANCH   1  10
TORSDOF 7
