REMARK SMILES Cc1cccc(C=C2C(=O)N(C)c3ncnc(-c4[nH]c(C)cc4C)c32)c1
REMARK SMILES IDX 7 1 8 2 9 3 10 4 11 5 12 6 13 7 14 8 15 9 16 10 17 11 25 12
REMARK SMILES IDX 6 13 2 14 3 15 26 16 4 17 5 18 1 19 18 20 19 21 23 22 20 23
REMARK SMILES IDX 22 24 24 26 21 27
REMARK H PARENT 19 25
ROOT
ATOM      1  C   UNL     1       0.699  -0.085   0.529  1.00  0.00    +0.022 C 
ATOM      2  C   UNL     1       0.126   1.119   0.376  1.00  0.00    +0.054 C 
ATOM      3  C   UNL     1       0.828   2.457   0.368  1.00  0.00    +0.260 C 
ATOM      4  O   UNL     1       2.024   2.674   0.379  1.00  0.00    -0.269 OA
ATOM      5  N   UNL     1      -0.197   3.389   0.358  1.00  0.00    -0.295 N 
ATOM      6  C   UNL     1      -0.031   4.815   0.368  1.00  0.00    +0.155 C 
ATOM      7  C   UNL     1      -1.453   2.775   0.327  1.00  0.00    +0.147 A 
ATOM      8  N   UNL     1      -2.611   3.448   0.319  1.00  0.00    -0.218 NA
ATOM      9  C   UNL     1      -3.692   2.661   0.281  1.00  0.00    +0.225 A 
ATOM     10  N   UNL     1      -3.695   1.317   0.235  1.00  0.00    -0.234 NA
ATOM     11  C   UNL     1      -2.488   0.701   0.207  1.00  0.00    +0.100 A 
ATOM     12  C   UNL     1      -1.312   1.399   0.297  1.00  0.00    +0.058 A 
ENDROOT
BRANCH   1  13
ATOM     13  C   UNL     1       2.132  -0.381   0.636  1.00  0.00    -0.025 A 
ATOM     14  C   UNL     1       4.380  -0.418  -0.304  1.00  0.00    -0.051 A 
ATOM     15  C   UNL     1       4.837  -1.081   0.840  1.00  0.00    +0.003 A 
ATOM     16  C   UNL     1       3.020  -0.090  -0.407  1.00  0.00    +0.011 A 
ATOM     17  C   UNL     1       3.956  -1.387   1.877  1.00  0.00    +0.001 A 
ATOM     18  C   UNL     1       2.608  -1.041   1.774  1.00  0.00    +0.008 A 
ATOM     19  C   UNL     1       5.319  -0.110  -1.433  1.00  0.00    +0.044 C 
ENDBRANCH   1  13
BRANCH  11  20
ATOM     20  C   UNL     1      -2.598  -0.743   0.057  1.00  0.00    +0.068 A 
ATOM     21  N   UNL     1      -3.358  -1.487   0.932  1.00  0.00    -0.357 N 
ATOM     22  C   UNL     1      -2.125  -1.616  -0.917  1.00  0.00    -0.024 A 
ATOM     23  C   UNL     1      -3.297  -2.818   0.610  1.00  0.00    +0.012 A 
ATOM     24  C   UNL     1      -2.542  -2.925  -0.537  1.00  0.00    +0.026 A 
ATOM     25  H   UNL     1      -3.884  -1.091   1.700  1.00  0.00    +0.166 HD
ATOM     26  C   UNL     1      -1.338  -1.291  -2.138  1.00  0.00    +0.047 C 
ATOM     27  C   UNL     1      -3.992  -3.849   1.417  1.00  0.00    +0.064 C 
ENDBRANCH  11  20
TORSDOF 2
