REMARK SMILES CCN(CC/N=N/Nc1ccc2ncnc(-c3cccc(Cl)c3)c2c1)c1ccc(F)c(Cl)c1
REMARK SMILES IDX 6 1 7 2 5 3 4 4 3 5 2 6 1 7 26 8 27 9 33 10 28 11 31 12
REMARK SMILES IDX 29 13 32 14 30 15 8 16 9 18 10 19 25 20 11 21 24 22 12 23
REMARK SMILES IDX 16 24 13 25 15 26 14 27 17 28 18 29 23 30 19 31 21 32 20 33
REMARK SMILES IDX 22 34
REMARK H PARENT 8 17
ROOT
ATOM      1  N   UNL     1      -1.054   0.795  -0.980  1.00  0.00    -0.169 NA
ATOM      2  N   UNL     1      -0.028   0.168  -0.663  1.00  0.00    -0.075 NA
ENDROOT
BRANCH   1   3
ATOM      3  C   UNL     1      -1.287   1.950  -0.092  1.00  0.00    +0.190 C 
BRANCH   3   4
ATOM      4  C   UNL     1      -2.228   1.563   1.065  1.00  0.00    +0.142 C 
BRANCH   4   5
ATOM      5  N   UNL     1      -3.655   1.728   0.706  1.00  0.00    -0.370 N 
BRANCH   5   6
ATOM      6  C   UNL     1      -4.230   3.042   1.037  1.00  0.00    +0.113 C 
ATOM      7  C   UNL     1      -4.933   2.996   2.385  1.00  0.00    +0.027 C 
ENDBRANCH   5   6
BRANCH   5   8
ATOM      8  C   UNL     1      -4.390   0.737   0.071  1.00  0.00    +0.038 A 
ATOM      9  C   UNL     1      -5.732   0.930  -0.316  1.00  0.00    +0.029 A 
ATOM     10  C   UNL     1      -3.850  -0.527  -0.231  1.00  0.00    +0.049 A 
ATOM     11  C   UNL     1      -6.477  -0.051  -0.982  1.00  0.00    +0.043 A 
ATOM     12  C   UNL     1      -4.582  -1.512  -0.906  1.00  0.00    +0.078 A 
ATOM     13  C   UNL     1      -5.894  -1.267  -1.281  1.00  0.00    +0.141 A 
ATOM     14 Cl   UNL     1      -3.831  -3.015  -1.281  1.00  0.00    -0.081 Cl
ATOM     15  F   UNL     1      -6.619  -2.198  -1.923  1.00  0.00    -0.205 F 
ENDBRANCH   5   8
ENDBRANCH   4   5
ENDBRANCH   3   4
ENDBRANCH   1   3
BRANCH   2  16
ATOM     16  N   UNL     1       0.002  -0.918  -1.453  1.00  0.00    -0.260 N 
ATOM     17  H   UNL     1      -0.643  -0.915  -2.240  1.00  0.00    +0.192 HD
BRANCH  16  18
ATOM     18  C   UNL     1       1.214  -1.603  -1.647  1.00  0.00    +0.059 A 
ATOM     19  C   UNL     1       1.243  -2.725  -2.472  1.00  0.00    +0.030 A 
ATOM     20  C   UNL     1       2.383  -1.284  -0.954  1.00  0.00    +0.040 A 
ATOM     21  C   UNL     1       2.418  -3.473  -2.625  1.00  0.00    +0.031 A 
ATOM     22  C   UNL     1       3.587  -2.019  -1.125  1.00  0.00    +0.029 A 
ATOM     23  C   UNL     1       3.592  -3.138  -1.964  1.00  0.00    +0.074 A 
ATOM     24  C   UNL     1       4.820  -1.731  -0.506  1.00  0.00    +0.082 A 
ATOM     25  N   UNL     1       4.674  -3.900  -2.150  1.00  0.00    -0.236 NA
ATOM     26  N   UNL     1       5.918  -2.500  -0.669  1.00  0.00    -0.236 NA
ATOM     27  C   UNL     1       5.783  -3.549  -1.484  1.00  0.00    +0.223 A 
BRANCH  24  28
ATOM     28  C   UNL     1       5.050  -0.542   0.337  1.00  0.00    +0.002 A 
ATOM     29  C   UNL     1       5.402  -0.676   1.692  1.00  0.00    +0.010 A 
ATOM     30  C   UNL     1       4.943   0.752  -0.200  1.00  0.00    +0.030 A 
ATOM     31  C   UNL     1       5.609   0.449   2.493  1.00  0.00    +0.002 A 
ATOM     32  C   UNL     1       5.146   1.872   0.605  1.00  0.00    +0.041 A 
ATOM     33  C   UNL     1       5.472   1.728   1.950  1.00  0.00    +0.020 A 
ATOM     34 Cl   UNL     1       4.990   3.440  -0.075  1.00  0.00    -0.084 Cl
ENDBRANCH  24  28
ENDBRANCH  16  18
ENDBRANCH   2  16
TORSDOF 8
