REMARK SMILES CCN(CC/N=N/Nc1ccc2ncnc(-c3cccc(Cl)c3)c2c1)c1[nH]c(C)cc1C
REMARK SMILES IDX 6 1 7 2 5 3 4 4 3 5 2 6 1 7 26 8 27 9 31 10 28 11 30 12
REMARK SMILES IDX 32 14 29 15 8 16 9 18 10 19 25 20 11 21 24 22 12 23 16 24
REMARK SMILES IDX 13 25 15 26 14 27 17 28 18 29 23 30 19 31 21 32 20 33 22 34
REMARK H PARENT 27 13 8 17
ROOT
ATOM      1  N   UNL     1      -0.823   0.975  -0.531  1.00  0.00    -0.169 NA
ATOM      2  N   UNL     1      -0.048   0.442   0.279  1.00  0.00    -0.075 NA
ENDROOT
BRANCH   1   3
ATOM      3  C   UNL     1      -1.857   1.814   0.109  1.00  0.00    +0.190 C 
BRANCH   3   4
ATOM      4  C   UNL     1      -2.602   1.138   1.270  1.00  0.00    +0.143 C 
BRANCH   4   5
ATOM      5  N   UNL     1      -3.522   0.068   0.838  1.00  0.00    -0.356 N 
BRANCH   5   6
ATOM      6  C   UNL     1      -2.943  -1.276   0.731  1.00  0.00    +0.114 C 
ATOM      7  C   UNL     1      -3.755  -2.278   1.546  1.00  0.00    +0.027 C 
ENDBRANCH   5   6
BRANCH   5   8
ATOM      8  C   UNL     1      -4.714   0.375   0.239  1.00  0.00    +0.109 A 
ATOM      9  N   UNL     1      -5.495   1.373   0.777  1.00  0.00    -0.346 N 
ATOM     10  C   UNL     1      -5.419  -0.149  -0.837  1.00  0.00    -0.009 A 
ATOM     11  C   UNL     1      -6.672   1.503   0.089  1.00  0.00    +0.014 A 
ATOM     12  C   UNL     1      -6.644   0.576  -0.927  1.00  0.00    +0.028 A 
ATOM     13  H   UNL     1      -5.254   1.888   1.608  1.00  0.00    +0.168 HD
ATOM     14  C   UNL     1      -5.026  -1.234  -1.770  1.00  0.00    +0.048 C 
ATOM     15  C   UNL     1      -7.698   2.495   0.472  1.00  0.00    +0.064 C 
ENDBRANCH   5   8
ENDBRANCH   4   5
ENDBRANCH   3   4
ENDBRANCH   1   3
BRANCH   2  16
ATOM     16  N   UNL     1       0.929  -0.121  -0.458  1.00  0.00    -0.260 N 
ATOM     17  H   UNL     1       1.149   0.405  -1.297  1.00  0.00    +0.192 HD
BRANCH  16  18
ATOM     18  C   UNL     1       2.027  -0.649   0.238  1.00  0.00    +0.059 A 
ATOM     19  C   UNL     1       1.863  -1.397   1.404  1.00  0.00    +0.030 A 
ATOM     20  C   UNL     1       3.326  -0.476  -0.250  1.00  0.00    +0.040 A 
ATOM     21  C   UNL     1       2.969  -1.963   2.048  1.00  0.00    +0.031 A 
ATOM     22  C   UNL     1       4.457  -1.010   0.429  1.00  0.00    +0.029 A 
ATOM     23  C   UNL     1       4.263  -1.786   1.579  1.00  0.00    +0.074 A 
ATOM     24  C   UNL     1       5.804  -0.842   0.054  1.00  0.00    +0.082 A 
ATOM     25  N   UNL     1       5.267  -2.362   2.248  1.00  0.00    -0.236 NA
ATOM     26  N   UNL     1       6.830  -1.434   0.707  1.00  0.00    -0.236 NA
ATOM     27  C   UNL     1       6.503  -2.168   1.773  1.00  0.00    +0.223 A 
BRANCH  24  28
ATOM     28  C   UNL     1       6.244   0.029  -1.048  1.00  0.00    +0.002 A 
ATOM     29  C   UNL     1       7.001  -0.490  -2.114  1.00  0.00    +0.010 A 
ATOM     30  C   UNL     1       5.961   1.405  -1.043  1.00  0.00    +0.030 A 
ATOM     31  C   UNL     1       7.440   0.333  -3.156  1.00  0.00    +0.002 A 
ATOM     32  C   UNL     1       6.396   2.223  -2.091  1.00  0.00    +0.041 A 
ATOM     33  C   UNL     1       7.133   1.692  -3.147  1.00  0.00    +0.020 A 
ATOM     34 Cl   UNL     1       6.020   3.904  -2.071  1.00  0.00    -0.084 Cl
ENDBRANCH  24  28
ENDBRANCH  16  18
ENDBRANCH   2  16
TORSDOF 8
