MODEL 1
REMARK VINA RESULT:    -8.279      0.000      0.000
REMARK INTER + INTRA:         -10.448
REMARK INTER:                 -10.457
REMARK INTRA:                   0.009
REMARK UNBOUND:                 0.009
REMARK SMILES Cc1cc(C)c(C(=O)N2CCN(c3cc(C(=O)O)cc(O)c3O)CC2)[nH]1
REMARK SMILES IDX 13 1 14 2 15 3 19 4 20 5 22 6 12 7 7 8 8 9 9 10 10 11 25 12
REMARK SMILES IDX 11 13 24 14 6 15 2 16 3 17 26 18 4 19 1 20 5 22 23 23 16 25
REMARK SMILES IDX 17 26 18 27 21 29
REMARK H PARENT 26 21 23 24 18 28 21 30
ROOT
ATOM      1  C   UNL     1      26.376   0.840  53.482  1.00  0.00    +0.084 A 
ATOM      2  C   UNL     1      26.549  -0.509  53.128  1.00  0.00    +0.045 A 
ATOM      3  C   UNL     1      27.811  -1.136  53.147  1.00  0.00    +0.065 A 
ATOM      4  C   UNL     1      28.950  -0.409  53.492  1.00  0.00    +0.066 A 
ATOM      5  C   UNL     1      28.808   0.931  53.806  1.00  0.00    +0.160 A 
ATOM      6  C   UNL     1      27.549   1.542  53.828  1.00  0.00    +0.181 A 
ENDROOT
BRANCH   1   7
ATOM      7  N   UNL     1      25.125   1.457  53.471  1.00  0.00    -0.365 N 
ATOM      8  C   UNL     1      21.756   2.086  51.746  1.00  0.00    +0.270 C 
ATOM      9  O   UNL     1      21.722   3.313  51.823  1.00  0.00    -0.267 OA
ATOM     10  N   UNL     1      22.959   1.398  51.562  1.00  0.00    -0.334 N 
ATOM     11  C   UNL     1      23.260   0.209  52.374  1.00  0.00    +0.141 C 
ATOM     12  C   UNL     1      24.151   2.212  51.299  1.00  0.00    +0.141 C 
ATOM     13  C   UNL     1      23.939   0.599  53.709  1.00  0.00    +0.138 C 
ATOM     14  C   UNL     1      24.847   2.630  52.609  1.00  0.00    +0.138 C 
BRANCH   8  15
ATOM     15  C   UNL     1      20.540   1.302  51.858  1.00  0.00    +0.107 A 
ATOM     16  C   UNL     1      18.642   0.335  51.100  1.00  0.00    +0.012 A 
ATOM     17  C   UNL     1      18.764   0.021  52.436  1.00  0.00    +0.027 A 
ATOM     18  N   UNL     1      19.747   1.070  50.756  1.00  0.00    -0.354 N 
ATOM     19  C   UNL     1      19.978   0.593  52.917  1.00  0.00    -0.020 A 
ATOM     20  C   UNL     1      17.598  -0.016  50.108  1.00  0.00    +0.064 C 
ATOM     21  H   UNL     1      19.964   1.414  49.829  1.00  0.00    +0.166 HD
ATOM     22  C   UNL     1      20.520   0.414  54.292  1.00  0.00    +0.047 C 
ENDBRANCH   8  15
ENDBRANCH   1   7
BRANCH   6  23
ATOM     23  O   UNL     1      27.502   2.871  54.180  1.00  0.00    -0.503 OA
ATOM     24  H   UNL     1      27.836   2.916  55.093  1.00  0.00    +0.293 HD
ENDBRANCH   6  23
BRANCH   3  25
ATOM     25  C   UNL     1      27.880  -2.570  52.780  1.00  0.00    +0.335 C 
ATOM     26  O   UNL     1      27.165  -3.132  51.972  1.00  0.00    -0.246 OA
BRANCH  25  27
ATOM     27  O   UNL     1      28.841  -3.235  53.444  1.00  0.00    -0.478 OA
ATOM     28  H   UNL     1      28.616  -3.097  54.389  1.00  0.00    +0.297 HD
ENDBRANCH  25  27
ENDBRANCH   3  25
BRANCH   5  29
ATOM     29  O   UNL     1      29.932   1.669  54.053  1.00  0.00    -0.504 OA
ATOM     30  H   UNL     1      30.676   1.037  54.015  1.00  0.00    +0.293 HD
ENDBRANCH   5  29
TORSDOF 6
ENDMDL
MODEL 2
REMARK VINA RESULT:    -8.134      0.801      1.452
REMARK INTER + INTRA:         -10.265
REMARK INTER:                 -10.199
REMARK INTRA:                  -0.066
REMARK UNBOUND:                 0.009
REMARK SMILES Cc1cc(C)c(C(=O)N2CCN(c3cc(C(=O)O)cc(O)c3O)CC2)[nH]1
REMARK SMILES IDX 13 1 14 2 15 3 19 4 20 5 22 6 12 7 7 8 8 9 9 10 10 11 25 12
REMARK SMILES IDX 11 13 24 14 6 15 2 16 3 17 26 18 4 19 1 20 5 22 23 23 16 25
REMARK SMILES IDX 17 26 18 27 21 29
REMARK H PARENT 26 21 23 24 18 28 21 30
ROOT
ATOM      1  C   UNL     1      26.326   0.807  53.546  1.00  0.00    +0.084 A 
ATOM      2  C   UNL     1      26.537  -0.539  53.196  1.00  0.00    +0.045 A 
ATOM      3  C   UNL     1      27.821  -1.121  53.187  1.00  0.00    +0.065 A 
ATOM      4  C   UNL     1      28.942  -0.352  53.497  1.00  0.00    +0.066 A 
ATOM      5  C   UNL     1      28.761   0.984  53.806  1.00  0.00    +0.160 A 
ATOM      6  C   UNL     1      27.482   1.551  53.856  1.00  0.00    +0.181 A 
ENDROOT
BRANCH   1   7
ATOM      7  N   UNL     1      25.055   1.379  53.562  1.00  0.00    -0.365 N 
ATOM      8  C   UNL     1      21.810   2.299  51.733  1.00  0.00    +0.270 C 
ATOM      9  O   UNL     1      21.717   3.476  52.078  1.00  0.00    -0.267 OA
ATOM     10  N   UNL     1      23.053   1.700  51.506  1.00  0.00    -0.334 N 
ATOM     11  C   UNL     1      23.340   0.366  52.056  1.00  0.00    +0.141 C 
ATOM     12  C   UNL     1      24.225   2.581  51.536  1.00  0.00    +0.141 C 
ATOM     13  C   UNL     1      23.892   0.461  53.498  1.00  0.00    +0.138 C 
ATOM     14  C   UNL     1      24.796   2.709  52.963  1.00  0.00    +0.138 C 
BRANCH   8  15
ATOM     15  C   UNL     1      20.624   1.481  51.561  1.00  0.00    +0.107 A 
ATOM     16  C   UNL     1      19.024   0.021  52.208  1.00  0.00    +0.012 A 
ATOM     17  C   UNL     1      18.758   0.378  50.904  1.00  0.00    +0.027 A 
ATOM     18  N   UNL     1      20.126   0.731  52.604  1.00  0.00    -0.354 N 
ATOM     19  C   UNL     1      19.737   1.330  50.496  1.00  0.00    -0.020 A 
ATOM     20  C   UNL     1      18.320  -0.905  53.127  1.00  0.00    +0.064 C 
ATOM     21  H   UNL     1      20.543   0.714  53.527  1.00  0.00    +0.166 HD
ATOM     22  C   UNL     1      19.755   2.029  49.182  1.00  0.00    +0.047 C 
ENDBRANCH   8  15
ENDBRANCH   1   7
BRANCH   6  23
ATOM     23  O   UNL     1      27.398   2.880  54.200  1.00  0.00    -0.503 OA
ATOM     24  H   UNL     1      26.508   3.169  53.932  1.00  0.00    +0.293 HD
ENDBRANCH   6  23
BRANCH   3  25
ATOM     25  C   UNL     1      27.930  -2.555  52.828  1.00  0.00    +0.335 C 
ATOM     26  O   UNL     1      27.224  -3.144  52.031  1.00  0.00    -0.246 OA
BRANCH  25  27
ATOM     27  O   UNL     1      28.919  -3.185  53.485  1.00  0.00    -0.478 OA
ATOM     28  H   UNL     1      29.421  -3.643  52.778  1.00  0.00    +0.297 HD
ENDBRANCH  25  27
ENDBRANCH   3  25
BRANCH   5  29
ATOM     29  O   UNL     1      29.865   1.763  54.019  1.00  0.00    -0.504 OA
ATOM     30  H   UNL     1      30.016   1.747  54.983  1.00  0.00    +0.293 HD
ENDBRANCH   5  29
TORSDOF 6
ENDMDL
MODEL 3
REMARK VINA RESULT:    -7.530      3.863      5.695
REMARK INTER + INTRA:          -9.502
REMARK INTER:                  -8.877
REMARK INTRA:                  -0.624
REMARK UNBOUND:                 0.009
REMARK SMILES Cc1cc(C)c(C(=O)N2CCN(c3cc(C(=O)O)cc(O)c3O)CC2)[nH]1
REMARK SMILES IDX 13 1 14 2 15 3 19 4 20 5 22 6 12 7 7 8 8 9 9 10 10 11 25 12
REMARK SMILES IDX 11 13 24 14 6 15 2 16 3 17 26 18 4 19 1 20 5 22 23 23 16 25
REMARK SMILES IDX 17 26 18 27 21 29
REMARK H PARENT 26 21 23 24 18 28 21 30
ROOT
ATOM      1  C   UNL     1      23.611   1.006  52.115  1.00  0.00    +0.084 A 
ATOM      2  C   UNL     1      22.536   0.512  52.874  1.00  0.00    +0.045 A 
ATOM      3  C   UNL     1      22.724  -0.352  53.972  1.00  0.00    +0.065 A 
ATOM      4  C   UNL     1      24.007  -0.776  54.319  1.00  0.00    +0.066 A 
ATOM      5  C   UNL     1      25.076  -0.333  53.560  1.00  0.00    +0.160 A 
ATOM      6  C   UNL     1      24.892   0.558  52.497  1.00  0.00    +0.181 A 
ENDROOT
BRANCH   1   7
ATOM      7  N   UNL     1      23.423   1.867  51.034  1.00  0.00    -0.365 N 
ATOM      8  C   UNL     1      21.356   4.581  49.280  1.00  0.00    +0.270 C 
ATOM      9  O   UNL     1      21.292   4.084  48.156  1.00  0.00    -0.267 OA
ATOM     10  N   UNL     1      21.353   3.787  50.431  1.00  0.00    -0.334 N 
ATOM     11  C   UNL     1      22.316   4.054  51.511  1.00  0.00    +0.141 C 
ATOM     12  C   UNL     1      21.105   2.355  50.244  1.00  0.00    +0.141 C 
ATOM     13  C   UNL     1      23.652   3.313  51.266  1.00  0.00    +0.138 C 
ATOM     14  C   UNL     1      22.416   1.585  49.985  1.00  0.00    +0.138 C 
BRANCH   8  15
ATOM     15  C   UNL     1      21.449   6.019  49.449  1.00  0.00    +0.107 A 
ATOM     16  C   UNL     1      20.653   8.096  49.857  1.00  0.00    +0.012 A 
ATOM     17  C   UNL     1      22.012   8.203  49.655  1.00  0.00    +0.027 A 
ATOM     18  N   UNL     1      20.337   6.765  49.776  1.00  0.00    -0.354 N 
ATOM     19  C   UNL     1      22.533   6.895  49.436  1.00  0.00    -0.020 A 
ATOM     20  C   UNL     1      19.627   9.125  50.149  1.00  0.00    +0.064 C 
ATOM     21  H   UNL     1      19.419   6.363  49.920  1.00  0.00    +0.166 HD
ATOM     22  C   UNL     1      23.974   6.567  49.260  1.00  0.00    +0.047 C 
ENDBRANCH   8  15
ENDBRANCH   1   7
BRANCH   6  23
ATOM     23  O   UNL     1      26.016   0.966  51.818  1.00  0.00    -0.503 OA
ATOM     24  H   UNL     1      26.425   1.656  52.369  1.00  0.00    +0.293 HD
ENDBRANCH   6  23
BRANCH   3  25
ATOM     25  C   UNL     1      21.524  -0.794  54.722  1.00  0.00    +0.335 C 
ATOM     26  O   UNL     1      21.271  -1.939  55.046  1.00  0.00    -0.246 OA
BRANCH  25  27
ATOM     27  O   UNL     1      20.696   0.219  55.028  1.00  0.00    -0.478 OA
ATOM     28  H   UNL     1      20.123   0.306  54.236  1.00  0.00    +0.297 HD
ENDBRANCH  25  27
ENDBRANCH   3  25
BRANCH   5  29
ATOM     29  O   UNL     1      26.323  -0.820  53.839  1.00  0.00    -0.504 OA
ATOM     30  H   UNL     1      26.861  -0.635  53.046  1.00  0.00    +0.293 HD
ENDBRANCH   5  29
TORSDOF 6
ENDMDL
MODEL 4
REMARK VINA RESULT:    -7.517      3.823      6.713
REMARK INTER + INTRA:          -9.485
REMARK INTER:                  -9.025
REMARK INTRA:                  -0.461
REMARK UNBOUND:                 0.009
REMARK SMILES Cc1cc(C)c(C(=O)N2CCN(c3cc(C(=O)O)cc(O)c3O)CC2)[nH]1
REMARK SMILES IDX 13 1 14 2 15 3 19 4 20 5 22 6 12 7 7 8 8 9 9 10 10 11 25 12
REMARK SMILES IDX 11 13 24 14 6 15 2 16 3 17 26 18 4 19 1 20 5 22 23 23 16 25
REMARK SMILES IDX 17 26 18 27 21 29
REMARK H PARENT 26 21 23 24 18 28 21 30
ROOT
ATOM      1  C   UNL     1      22.542   1.596  52.523  1.00  0.00    +0.084 A 
ATOM      2  C   UNL     1      23.800   1.024  52.783  1.00  0.00    +0.045 A 
ATOM      3  C   UNL     1      23.945  -0.175  53.510  1.00  0.00    +0.065 A 
ATOM      4  C   UNL     1      22.824  -0.820  54.031  1.00  0.00    +0.066 A 
ATOM      5  C   UNL     1      21.579  -0.254  53.820  1.00  0.00    +0.160 A 
ATOM      6  C   UNL     1      21.432   0.913  53.062  1.00  0.00    +0.181 A 
ENDROOT
BRANCH   1   7
ATOM      7  N   UNL     1      22.399   2.777  51.797  1.00  0.00    -0.365 N 
ATOM      8  C   UNL     1      23.677   6.275  50.875  1.00  0.00    +0.270 C 
ATOM      9  O   UNL     1      22.631   6.909  51.013  1.00  0.00    -0.267 OA
ATOM     10  N   UNL     1      23.986   5.188  51.697  1.00  0.00    -0.334 N 
ATOM     11  C   UNL     1      24.499   3.941  51.108  1.00  0.00    +0.141 C 
ATOM     12  C   UNL     1      23.090   4.943  52.832  1.00  0.00    +0.141 C 
ATOM     13  C   UNL     1      23.342   3.008  50.676  1.00  0.00    +0.138 C 
ATOM     14  C   UNL     1      21.917   4.025  52.434  1.00  0.00    +0.138 C 
BRANCH   8  15
ATOM     15  C   UNL     1      24.627   6.630  49.837  1.00  0.00    +0.107 A 
ATOM     16  C   UNL     1      26.618   7.328  49.027  1.00  0.00    +0.012 A 
ATOM     17  C   UNL     1      25.801   7.066  47.950  1.00  0.00    +0.027 A 
ATOM     18  N   UNL     1      25.910   7.015  50.157  1.00  0.00    -0.354 N 
ATOM     19  C   UNL     1      24.553   6.587  48.446  1.00  0.00    -0.020 A 
ATOM     20  C   UNL     1      28.016   7.820  49.092  1.00  0.00    +0.064 C 
ATOM     21  H   UNL     1      26.258   7.064  51.107  1.00  0.00    +0.166 HD
ATOM     22  C   UNL     1      23.424   6.110  47.602  1.00  0.00    +0.047 C 
ENDBRANCH   8  15
ENDBRANCH   1   7
BRANCH   6  23
ATOM     23  O   UNL     1      20.153   1.387  52.882  1.00  0.00    -0.503 OA
ATOM     24  H   UNL     1      19.569   0.762  53.346  1.00  0.00    +0.293 HD
ENDBRANCH   6  23
BRANCH   3  25
ATOM     25  C   UNL     1      25.315  -0.706  53.707  1.00  0.00    +0.335 C 
ATOM     26  O   UNL     1      26.103  -0.986  52.823  1.00  0.00    -0.246 OA
BRANCH  25  27
ATOM     27  O   UNL     1      25.634  -0.864  55.003  1.00  0.00    -0.478 OA
ATOM     28  H   UNL     1      26.602  -1.021  54.993  1.00  0.00    +0.297 HD
ENDBRANCH  25  27
ENDBRANCH   3  25
BRANCH   5  29
ATOM     29  O   UNL     1      20.488  -0.833  54.408  1.00  0.00    -0.504 OA
ATOM     30  H   UNL     1      20.387  -0.387  55.270  1.00  0.00    +0.293 HD
ENDBRANCH   5  29
TORSDOF 6
ENDMDL
MODEL 5
REMARK VINA RESULT:    -7.438      4.057      6.882
REMARK INTER + INTRA:          -9.386
REMARK INTER:                  -8.726
REMARK INTRA:                  -0.660
REMARK UNBOUND:                 0.009
REMARK SMILES Cc1cc(C)c(C(=O)N2CCN(c3cc(C(=O)O)cc(O)c3O)CC2)[nH]1
REMARK SMILES IDX 13 1 14 2 15 3 19 4 20 5 22 6 12 7 7 8 8 9 9 10 10 11 25 12
REMARK SMILES IDX 11 13 24 14 6 15 2 16 3 17 26 18 4 19 1 20 5 22 23 23 16 25
REMARK SMILES IDX 17 26 18 27 21 29
REMARK H PARENT 26 21 23 24 18 28 21 30
ROOT
ATOM      1  C   UNL     1      21.615   0.543  52.606  1.00  0.00    +0.084 A 
ATOM      2  C   UNL     1      20.249   0.280  52.406  1.00  0.00    +0.045 A 
ATOM      3  C   UNL     1      19.550  -0.683  53.161  1.00  0.00    +0.065 A 
ATOM      4  C   UNL     1      20.217  -1.439  54.124  1.00  0.00    +0.066 A 
ATOM      5  C   UNL     1      21.571  -1.224  54.310  1.00  0.00    +0.160 A 
ATOM      6  C   UNL     1      22.255  -0.239  53.589  1.00  0.00    +0.181 A 
ENDROOT
BRANCH   1   7
ATOM      7  N   UNL     1      22.303   1.502  51.863  1.00  0.00    -0.365 N 
ATOM      8  C   UNL     1      22.260   4.470  49.434  1.00  0.00    +0.270 C 
ATOM      9  O   UNL     1      23.098   4.074  48.625  1.00  0.00    -0.267 OA
ATOM     10  N   UNL     1      21.394   3.584  50.081  1.00  0.00    -0.334 N 
ATOM     11  C   UNL     1      21.169   3.702  51.531  1.00  0.00    +0.141 C 
ATOM     12  C   UNL     1      21.419   2.189  49.631  1.00  0.00    +0.141 C 
ATOM     13  C   UNL     1      22.231   2.908  52.329  1.00  0.00    +0.138 C 
ATOM     14  C   UNL     1      22.476   1.369  50.398  1.00  0.00    +0.138 C 
BRANCH   8  15
ATOM     15  C   UNL     1      22.149   5.881  49.755  1.00  0.00    +0.107 A 
ATOM     16  C   UNL     1      21.101   7.879  49.898  1.00  0.00    +0.012 A 
ATOM     17  C   UNL     1      22.371   8.039  50.406  1.00  0.00    +0.027 A 
ATOM     18  N   UNL     1      20.967   6.560  49.552  1.00  0.00    -0.354 N 
ATOM     19  C   UNL     1      23.030   6.776  50.359  1.00  0.00    -0.020 A 
ATOM     20  C   UNL     1      19.989   8.846  49.732  1.00  0.00    +0.064 C 
ATOM     21  H   UNL     1      20.130   6.125  49.185  1.00  0.00    +0.166 HD
ATOM     22  C   UNL     1      24.392   6.502  50.894  1.00  0.00    +0.047 C 
ENDBRANCH   8  15
ENDBRANCH   1   7
BRANCH   6  23
ATOM     23  O   UNL     1      23.593  -0.076  53.863  1.00  0.00    -0.503 OA
ATOM     24  H   UNL     1      23.937   0.515  53.170  1.00  0.00    +0.293 HD
ENDBRANCH   6  23
BRANCH   3  25
ATOM     25  C   UNL     1      18.104  -0.866  52.887  1.00  0.00    +0.335 C 
ATOM     26  O   UNL     1      17.558  -0.702  51.812  1.00  0.00    -0.246 OA
BRANCH  25  27
ATOM     27  O   UNL     1      17.409  -1.243  53.974  1.00  0.00    -0.478 OA
ATOM     28  H   UNL     1      16.689  -1.802  53.613  1.00  0.00    +0.297 HD
ENDBRANCH  25  27
ENDBRANCH   3  25
BRANCH   5  29
ATOM     29  O   UNL     1      22.248  -2.027  55.186  1.00  0.00    -0.504 OA
ATOM     30  H   UNL     1      23.194  -1.836  55.040  1.00  0.00    +0.293 HD
ENDBRANCH   5  29
TORSDOF 6
ENDMDL
MODEL 6
REMARK VINA RESULT:    -7.309      3.802      5.830
REMARK INTER + INTRA:          -9.222
REMARK INTER:                  -8.553
REMARK INTRA:                  -0.669
REMARK UNBOUND:                 0.009
REMARK SMILES Cc1cc(C)c(C(=O)N2CCN(c3cc(C(=O)O)cc(O)c3O)CC2)[nH]1
REMARK SMILES IDX 13 1 14 2 15 3 19 4 20 5 22 6 12 7 7 8 8 9 9 10 10 11 25 12
REMARK SMILES IDX 11 13 24 14 6 15 2 16 3 17 26 18 4 19 1 20 5 22 23 23 16 25
REMARK SMILES IDX 17 26 18 27 21 29
REMARK H PARENT 26 21 23 24 18 28 21 30
ROOT
ATOM      1  C   UNL     1      21.753   0.789  52.672  1.00  0.00    +0.084 A 
ATOM      2  C   UNL     1      23.152   0.712  52.785  1.00  0.00    +0.045 A 
ATOM      3  C   UNL     1      23.790  -0.259  53.583  1.00  0.00    +0.065 A 
ATOM      4  C   UNL     1      23.033  -1.165  54.325  1.00  0.00    +0.066 A 
ATOM      5  C   UNL     1      21.653  -1.081  54.259  1.00  0.00    +0.160 A 
ATOM      6  C   UNL     1      21.021  -0.144  53.434  1.00  0.00    +0.181 A 
ENDROOT
BRANCH   1   7
ATOM      7  N   UNL     1      21.124   1.745  51.875  1.00  0.00    -0.365 N 
ATOM      8  C   UNL     1      21.330   4.882  49.676  1.00  0.00    +0.270 C 
ATOM      9  O   UNL     1      20.416   5.535  50.179  1.00  0.00    -0.267 OA
ATOM     10  N   UNL     1      22.137   4.041  50.448  1.00  0.00    -0.334 N 
ATOM     11  C   UNL     1      22.448   2.682  49.976  1.00  0.00    +0.141 C 
ATOM     12  C   UNL     1      21.953   4.101  51.901  1.00  0.00    +0.141 C 
ATOM     13  C   UNL     1      21.357   1.675  50.412  1.00  0.00    +0.138 C 
ATOM     14  C   UNL     1      20.863   3.117  52.371  1.00  0.00    +0.138 C 
BRANCH   8  15
ATOM     15  C   UNL     1      21.594   4.953  48.251  1.00  0.00    +0.107 A 
ATOM     16  C   UNL     1      21.196   4.539  46.065  1.00  0.00    +0.012 A 
ATOM     17  C   UNL     1      22.334   5.311  46.140  1.00  0.00    +0.027 A 
ATOM     18  N   UNL     1      20.735   4.372  47.344  1.00  0.00    -0.354 N 
ATOM     19  C   UNL     1      22.575   5.613  47.513  1.00  0.00    -0.020 A 
ATOM     20  C   UNL     1      20.482   3.967  44.897  1.00  0.00    +0.064 C 
ATOM     21  H   UNL     1      19.890   3.882  47.611  1.00  0.00    +0.166 HD
ATOM     22  C   UNL     1      23.662   6.496  48.016  1.00  0.00    +0.047 C 
ENDBRANCH   8  15
ENDBRANCH   1   7
BRANCH   6  23
ATOM     23  O   UNL     1      19.646  -0.154  53.411  1.00  0.00    -0.503 OA
ATOM     24  H   UNL     1      19.393  -0.993  52.985  1.00  0.00    +0.293 HD
ENDBRANCH   6  23
BRANCH   3  25
ATOM     25  C   UNL     1      25.272  -0.269  53.613  1.00  0.00    +0.335 C 
ATOM     26  O   UNL     1      26.003   0.187  52.754  1.00  0.00    -0.246 OA
BRANCH  25  27
ATOM     27  O   UNL     1      25.770  -0.853  54.716  1.00  0.00    -0.478 OA
ATOM     28  H   UNL     1      25.273  -0.434  55.451  1.00  0.00    +0.297 HD
ENDBRANCH  25  27
ENDBRANCH   3  25
BRANCH   5  29
ATOM     29  O   UNL     1      20.908  -1.906  55.057  1.00  0.00    -0.504 OA
ATOM     30  H   UNL     1      21.224  -2.810  54.867  1.00  0.00    +0.293 HD
ENDBRANCH   5  29
TORSDOF 6
ENDMDL
MODEL 7
REMARK VINA RESULT:    -7.241      4.029      7.376
REMARK INTER + INTRA:          -9.136
REMARK INTER:                  -8.847
REMARK INTRA:                  -0.290
REMARK UNBOUND:                 0.009
REMARK SMILES Cc1cc(C)c(C(=O)N2CCN(c3cc(C(=O)O)cc(O)c3O)CC2)[nH]1
REMARK SMILES IDX 13 1 14 2 15 3 19 4 20 5 22 6 12 7 7 8 8 9 9 10 10 11 25 12
REMARK SMILES IDX 11 13 24 14 6 15 2 16 3 17 26 18 4 19 1 20 5 22 23 23 16 25
REMARK SMILES IDX 17 26 18 27 21 29
REMARK H PARENT 26 21 23 24 18 28 21 30
ROOT
ATOM      1  C   UNL     1      21.341   0.124  51.917  1.00  0.00    +0.084 A 
ATOM      2  C   UNL     1      19.939   0.081  51.823  1.00  0.00    +0.045 A 
ATOM      3  C   UNL     1      19.138  -0.535  52.806  1.00  0.00    +0.065 A 
ATOM      4  C   UNL     1      19.730  -1.162  53.902  1.00  0.00    +0.066 A 
ATOM      5  C   UNL     1      21.111  -1.166  53.993  1.00  0.00    +0.160 A 
ATOM      6  C   UNL     1      21.903  -0.517  53.039  1.00  0.00    +0.181 A 
ENDROOT
BRANCH   1   7
ATOM      7  N   UNL     1      22.131   0.741  50.948  1.00  0.00    -0.365 N 
ATOM      8  C   UNL     1      23.068   3.870  48.936  1.00  0.00    +0.270 C 
ATOM      9  O   UNL     1      23.072   3.383  47.806  1.00  0.00    -0.267 OA
ATOM     10  N   UNL     1      22.168   3.437  49.914  1.00  0.00    -0.334 N 
ATOM     11  C   UNL     1      22.642   3.162  51.281  1.00  0.00    +0.141 C 
ATOM     12  C   UNL     1      21.127   2.498  49.485  1.00  0.00    +0.141 C 
ATOM     13  C   UNL     1      23.153   1.708  51.415  1.00  0.00    +0.138 C 
ATOM     14  C   UNL     1      21.607   1.037  49.594  1.00  0.00    +0.138 C 
BRANCH   8  15
ATOM     15  C   UNL     1      24.012   4.911  49.298  1.00  0.00    +0.107 A 
ATOM     16  C   UNL     1      24.641   7.005  49.871  1.00  0.00    +0.012 A 
ATOM     17  C   UNL     1      25.775   6.223  49.846  1.00  0.00    +0.027 A 
ATOM     18  N   UNL     1      23.580   6.188  49.583  1.00  0.00    -0.354 N 
ATOM     19  C   UNL     1      25.387   4.890  49.525  1.00  0.00    -0.020 A 
ATOM     20  C   UNL     1      24.458   8.446  50.168  1.00  0.00    +0.064 C 
ATOM     21  H   UNL     1      22.606   6.464  49.565  1.00  0.00    +0.166 HD
ATOM     22  C   UNL     1      26.305   3.719  49.481  1.00  0.00    +0.047 C 
ENDBRANCH   8  15
ENDBRANCH   1   7
BRANCH   6  23
ATOM     23  O   UNL     1      23.266  -0.550  53.228  1.00  0.00    -0.503 OA
ATOM     24  H   UNL     1      23.579  -1.349  52.770  1.00  0.00    +0.293 HD
ENDBRANCH   6  23
BRANCH   3  25
ATOM     25  C   UNL     1      17.667  -0.502  52.624  1.00  0.00    +0.335 C 
ATOM     26  O   UNL     1      17.080  -0.038  51.665  1.00  0.00    -0.246 OA
BRANCH  25  27
ATOM     27  O   UNL     1      17.000  -1.050  53.655  1.00  0.00    -0.478 OA
ATOM     28  H   UNL     1      17.093  -2.016  53.511  1.00  0.00    +0.297 HD
ENDBRANCH  25  27
ENDBRANCH   3  25
BRANCH   5  29
ATOM     29  O   UNL     1      21.698  -1.859  55.016  1.00  0.00    -0.504 OA
ATOM     30  H   UNL     1      21.749  -2.785  54.710  1.00  0.00    +0.293 HD
ENDBRANCH   5  29
TORSDOF 6
ENDMDL
MODEL 8
REMARK VINA RESULT:    -7.174      2.457      4.283
REMARK INTER + INTRA:          -9.053
REMARK INTER:                  -8.384
REMARK INTRA:                  -0.669
REMARK UNBOUND:                 0.009
REMARK SMILES Cc1cc(C)c(C(=O)N2CCN(c3cc(C(=O)O)cc(O)c3O)CC2)[nH]1
REMARK SMILES IDX 13 1 14 2 15 3 19 4 20 5 22 6 12 7 7 8 8 9 9 10 10 11 25 12
REMARK SMILES IDX 11 13 24 14 6 15 2 16 3 17 26 18 4 19 1 20 5 22 23 23 16 25
REMARK SMILES IDX 17 26 18 27 21 29
REMARK H PARENT 26 21 23 24 18 28 21 30
ROOT
ATOM      1  C   UNL     1      26.641   0.359  52.670  1.00  0.00    +0.084 A 
ATOM      2  C   UNL     1      27.404   1.406  53.216  1.00  0.00    +0.045 A 
ATOM      3  C   UNL     1      28.681   1.193  53.774  1.00  0.00    +0.065 A 
ATOM      4  C   UNL     1      29.217  -0.093  53.831  1.00  0.00    +0.066 A 
ATOM      5  C   UNL     1      28.466  -1.143  53.335  1.00  0.00    +0.160 A 
ATOM      6  C   UNL     1      27.216  -0.926  52.743  1.00  0.00    +0.181 A 
ENDROOT
BRANCH   1   7
ATOM      7  N   UNL     1      25.381   0.572  52.111  1.00  0.00    -0.365 N 
ATOM      8  C   UNL     1      22.455   2.928  51.337  1.00  0.00    +0.270 C 
ATOM      9  O   UNL     1      21.526   2.225  51.733  1.00  0.00    -0.267 OA
ATOM     10  N   UNL     1      23.701   2.916  51.968  1.00  0.00    -0.334 N 
ATOM     11  C   UNL     1      24.933   2.840  51.166  1.00  0.00    +0.141 C 
ATOM     12  C   UNL     1      23.801   2.156  53.218  1.00  0.00    +0.141 C 
ATOM     13  C   UNL     1      25.314   1.371  50.863  1.00  0.00    +0.138 C 
ATOM     14  C   UNL     1      24.168   0.683  52.954  1.00  0.00    +0.138 C 
BRANCH   8  15
ATOM     15  C   UNL     1      22.289   3.792  50.182  1.00  0.00    +0.107 A 
ATOM     16  C   UNL     1      22.074   4.259  47.980  1.00  0.00    +0.012 A 
ATOM     17  C   UNL     1      22.006   5.451  48.667  1.00  0.00    +0.027 A 
ATOM     18  N   UNL     1      22.198   3.262  48.913  1.00  0.00    -0.354 N 
ATOM     19  C   UNL     1      22.101   5.167  50.060  1.00  0.00    -0.020 A 
ATOM     20  C   UNL     1      22.005   3.965  46.529  1.00  0.00    +0.064 C 
ATOM     21  H   UNL     1      22.233   2.269  48.718  1.00  0.00    +0.166 HD
ATOM     22  C   UNL     1      21.984   6.175  51.149  1.00  0.00    +0.047 C 
ENDBRANCH   8  15
ENDBRANCH   1   7
BRANCH   6  23
ATOM     23  O   UNL     1      26.554  -2.027  52.252  1.00  0.00    -0.503 OA
ATOM     24  H   UNL     1      25.777  -2.149  52.825  1.00  0.00    +0.293 HD
ENDBRANCH   6  23
BRANCH   3  25
ATOM     25  C   UNL     1      29.413   2.370  54.300  1.00  0.00    +0.335 C 
ATOM     26  O   UNL     1      29.853   2.488  55.428  1.00  0.00    -0.246 OA
BRANCH  25  27
ATOM     27  O   UNL     1      29.559   3.346  53.387  1.00  0.00    -0.478 OA
ATOM     28  H   UNL     1      30.203   2.978  52.746  1.00  0.00    +0.297 HD
ENDBRANCH  25  27
ENDBRANCH   3  25
BRANCH   5  29
ATOM     29  O   UNL     1      28.946  -2.416  53.475  1.00  0.00    -0.504 OA
ATOM     30  H   UNL     1      29.712  -2.475  52.872  1.00  0.00    +0.293 HD
ENDBRANCH   5  29
TORSDOF 6
ENDMDL
MODEL 9
REMARK VINA RESULT:    -7.065      3.349      4.978
REMARK INTER + INTRA:          -8.914
REMARK INTER:                  -8.792
REMARK INTRA:                  -0.122
REMARK UNBOUND:                 0.009
REMARK SMILES Cc1cc(C)c(C(=O)N2CCN(c3cc(C(=O)O)cc(O)c3O)CC2)[nH]1
REMARK SMILES IDX 13 1 14 2 15 3 19 4 20 5 22 6 12 7 7 8 8 9 9 10 10 11 25 12
REMARK SMILES IDX 11 13 24 14 6 15 2 16 3 17 26 18 4 19 1 20 5 22 23 23 16 25
REMARK SMILES IDX 17 26 18 27 21 29
REMARK H PARENT 26 21 23 24 18 28 21 30
ROOT
ATOM      1  C   UNL     1      24.824   1.071  52.629  1.00  0.00    +0.084 A 
ATOM      2  C   UNL     1      26.066   1.719  52.747  1.00  0.00    +0.045 A 
ATOM      3  C   UNL     1      27.023   1.340  53.709  1.00  0.00    +0.065 A 
ATOM      4  C   UNL     1      26.745   0.313  54.610  1.00  0.00    +0.066 A 
ATOM      5  C   UNL     1      25.513  -0.312  54.538  1.00  0.00    +0.160 A 
ATOM      6  C   UNL     1      24.579   0.036  53.555  1.00  0.00    +0.181 A 
ENDROOT
BRANCH   1   7
ATOM      7  N   UNL     1      23.881   1.441  51.671  1.00  0.00    -0.365 N 
ATOM      8  C   UNL     1      21.428   4.035  50.266  1.00  0.00    +0.270 C 
ATOM      9  O   UNL     1      20.440   3.316  50.128  1.00  0.00    -0.267 OA
ATOM     10  N   UNL     1      22.326   3.849  51.321  1.00  0.00    -0.334 N 
ATOM     11  C   UNL     1      23.775   3.862  51.066  1.00  0.00    +0.141 C 
ATOM     12  C   UNL     1      21.946   2.871  52.345  1.00  0.00    +0.141 C 
ATOM     13  C   UNL     1      24.287   2.457  50.670  1.00  0.00    +0.138 C 
ATOM     14  C   UNL     1      22.431   1.454  51.976  1.00  0.00    +0.138 C 
BRANCH   8  15
ATOM     15  C   UNL     1      21.706   5.101  49.321  1.00  0.00    +0.107 A 
ATOM     16  C   UNL     1      22.112   5.983  47.279  1.00  0.00    +0.012 A 
ATOM     17  C   UNL     1      22.106   7.020  48.185  1.00  0.00    +0.027 A 
ATOM     18  N   UNL     1      21.822   4.838  47.973  1.00  0.00    -0.354 N 
ATOM     19  C   UNL     1      21.812   6.482  49.473  1.00  0.00    -0.020 A 
ATOM     20  C   UNL     1      22.336   5.971  45.813  1.00  0.00    +0.064 C 
ATOM     21  H   UNL     1      21.716   3.913  47.575  1.00  0.00    +0.166 HD
ATOM     22  C   UNL     1      21.631   7.285  50.713  1.00  0.00    +0.047 C 
ENDBRANCH   8  15
ENDBRANCH   1   7
BRANCH   6  23
ATOM     23  O   UNL     1      23.392  -0.660  53.542  1.00  0.00    -0.503 OA
ATOM     24  H   UNL     1      23.468  -1.302  52.814  1.00  0.00    +0.293 HD
ENDBRANCH   6  23
BRANCH   3  25
ATOM     25  C   UNL     1      28.312   2.073  53.732  1.00  0.00    +0.335 C 
ATOM     26  O   UNL     1      29.173   1.971  54.586  1.00  0.00    -0.246 OA
BRANCH  25  27
ATOM     27  O   UNL     1      28.461   2.902  52.684  1.00  0.00    -0.478 OA
ATOM     28  H   UNL     1      27.617   2.817  52.192  1.00  0.00    +0.297 HD
ENDBRANCH  25  27
ENDBRANCH   3  25
BRANCH   5  29
ATOM     29  O   UNL     1      25.199  -1.254  55.478  1.00  0.00    -0.504 OA
ATOM     30  H   UNL     1      25.920  -1.219  56.136  1.00  0.00    +0.293 HD
ENDBRANCH   5  29
TORSDOF 6
ENDMDL
