REMARK SMILES O=[N+]([O-])c1cc(-c2cc(O)c(O)c(O)c2)ccc1O
REMARK SMILES IDX 4 1 5 2 6 3 16 4 17 5 18 6 2 7 1 8 3 9 19 10 7 12 8 13 15 14
REMARK SMILES IDX 9 15 13 16 11 17 10 18 14 20 12 22
REMARK H PARENT 19 11 10 19 14 21 12 23
ROOT
ATOM      1  C   UNL     1      -2.863  -0.653   0.801  1.00  0.00    +0.311 A 
ATOM      2  C   UNL     1      -1.488  -0.820   0.587  1.00  0.00    +0.098 A 
ATOM      3  C   UNL     1      -0.691   0.293   0.281  1.00  0.00    -0.011 A 
ATOM      4  C   UNL     1      -1.314   1.554   0.206  1.00  0.00    +0.013 A 
ATOM      5  C   UNL     1      -2.690   1.709   0.431  1.00  0.00    +0.054 A 
ATOM      6  C   UNL     1      -3.471   0.598   0.732  1.00  0.00    +0.194 A 
ENDROOT
BRANCH   1   7
ATOM      7  N   UNL     1      -3.651  -1.829   1.096  1.00  0.00    +0.066 N 
ATOM      8  O   UNL     1      -4.462  -2.201   0.236  1.00  0.00    -0.258 OA
ATOM      9  O   UNL     1      -3.404  -2.417   2.158  1.00  0.00    -0.258 OA
ENDBRANCH   1   7
BRANCH   6  10
ATOM     10  O   UNL     1      -4.804   0.745   0.974  1.00  0.00    -0.502 OA
ATOM     11  H   UNL     1      -5.064   1.674   0.849  1.00  0.00    +0.293 HD
ENDBRANCH   6  10
BRANCH   3  12
ATOM     12  C   UNL     1       0.755   0.149   0.043  1.00  0.00    -0.011 A 
ATOM     13  C   UNL     1       1.682   0.938   0.751  1.00  0.00    +0.059 A 
ATOM     14  C   UNL     1       1.244  -0.780  -0.901  1.00  0.00    +0.059 A 
ATOM     15  C   UNL     1       3.046   0.800   0.519  1.00  0.00    +0.162 A 
ATOM     16  C   UNL     1       2.615  -0.904  -1.120  1.00  0.00    +0.162 A 
ATOM     17  C   UNL     1       3.511  -0.116  -0.411  1.00  0.00    +0.200 A 
BRANCH  15  18
ATOM     18  O   UNL     1       3.926   1.576   1.216  1.00  0.00    -0.504 OA
ATOM     19  H   UNL     1       4.808   1.299   0.893  1.00  0.00    +0.293 HD
ENDBRANCH  15  18
BRANCH  16  20
ATOM     20  O   UNL     1       3.128  -1.789  -2.028  1.00  0.00    -0.504 OA
ATOM     21  H   UNL     1       2.389  -2.268  -2.443  1.00  0.00    +0.293 HD
ENDBRANCH  16  20
BRANCH  17  22
ATOM     22  O   UNL     1       4.858  -0.230  -0.619  1.00  0.00    -0.502 OA
ATOM     23  H   UNL     1       4.937  -0.926  -1.304  1.00  0.00    +0.293 HD
ENDBRANCH  17  22
ENDBRANCH   3  12
TORSDOF 6
