REMARK SMILES CN(C)/N=N/c1ccc2ncnc(C(=O)O)c2c1
REMARK SMILES IDX 6 1 7 2 8 3 9 4 10 5 11 6 12 7 13 8 17 9 18 10 5 11 4 12
REMARK SMILES IDX 2 13 1 14 3 15 14 16 15 17 16 18
REMARK H PARENT 16 19
ROOT
ATOM      1  C   UNL     1       0.232   0.095  -0.983  1.00  0.00    +0.088 A 
ATOM      2  C   UNL     1      -0.167   1.059  -1.903  1.00  0.00    +0.032 A 
ATOM      3  C   UNL     1      -1.479   1.540  -1.889  1.00  0.00    +0.031 A 
ATOM      4  C   UNL     1      -2.422   1.079  -0.981  1.00  0.00    +0.075 A 
ATOM      5  N   UNL     1      -3.649   1.604  -1.045  1.00  0.00    -0.236 NA
ATOM      6  C   UNL     1      -4.556   1.160  -0.171  1.00  0.00    +0.223 A 
ATOM      7  N   UNL     1      -4.348   0.234   0.760  1.00  0.00    -0.229 NA
ATOM      8  C   UNL     1      -3.096  -0.289   0.810  1.00  0.00    +0.159 A 
ATOM      9  C   UNL     1      -2.051   0.097  -0.052  1.00  0.00    +0.036 A 
ATOM     10  C   UNL     1      -0.710  -0.388  -0.071  1.00  0.00    +0.043 A 
ENDROOT
BRANCH   1  11
ATOM     11  N   UNL     1       1.536  -0.422  -0.993  1.00  0.00    -0.133 NA
ATOM     12  N   UNL     1       2.312   0.378  -0.434  1.00  0.00    -0.072 NA
BRANCH  12  13
ATOM     13  N   UNL     1       3.617  -0.053  -0.405  1.00  0.00    -0.285 N 
ATOM     14  C   UNL     1       3.908  -1.481  -0.417  1.00  0.00    +0.169 C 
ATOM     15  C   UNL     1       4.483   0.781   0.409  1.00  0.00    +0.169 C 
ENDBRANCH  12  13
ENDBRANCH   1  11
BRANCH   8  16
ATOM     16  C   UNL     1      -2.902  -1.340   1.870  1.00  0.00    +0.355 C 
ATOM     17  O   UNL     1      -1.921  -2.035   2.061  1.00  0.00    -0.245 OA
BRANCH  16  18
ATOM     18  O   UNL     1      -3.982  -1.477   2.670  1.00  0.00    -0.476 OA
ATOM     19  H   UNL     1      -3.736  -2.183   3.300  1.00  0.00    +0.297 HD
ENDBRANCH  16  18
ENDBRANCH   8  16
TORSDOF 4
