REMARK SMILES Cc1cc(C)c(N(C(=O)c2ccccc2)c2ccccn2)[nH]1
REMARK SMILES IDX 7 1 6 2 2 3 3 4 22 5 4 6 1 7 5 9 8 10 9 11 10 12 11 13 15 14
REMARK SMILES IDX 12 15 14 16 13 17 16 18 17 19 21 20 18 21 20 22 19 23
REMARK H PARENT 22 8
ROOT
ATOM      1  N   UNL     1       0.074   0.769  -0.554  1.00  0.00    -0.245 N 
ENDROOT
BRANCH   1   2
ATOM      2  C   UNL     1      -0.718  -0.017   0.305  1.00  0.00    +0.122 A 
ATOM      3  C   UNL     1      -1.327  -0.951   2.277  1.00  0.00    +0.014 A 
ATOM      4  C   UNL     1      -2.232  -1.361   1.325  1.00  0.00    +0.028 A 
ATOM      5  N   UNL     1      -0.421  -0.138   1.647  1.00  0.00    -0.345 N 
ATOM      6  C   UNL     1      -1.857  -0.783   0.076  1.00  0.00    -0.008 A 
ATOM      7  C   UNL     1      -1.237  -1.245   3.727  1.00  0.00    +0.064 C 
ATOM      8  H   UNL     1       0.334   0.345   2.113  1.00  0.00    +0.168 HD
ATOM      9  C   UNL     1      -2.563  -1.034  -1.211  1.00  0.00    +0.048 C 
ENDBRANCH   1   2
BRANCH   1  10
ATOM     10  C   UNL     1       1.458   0.889  -0.337  1.00  0.00    +0.265 C 
ATOM     11  O   UNL     1       2.131   1.892  -0.583  1.00  0.00    -0.268 OA
BRANCH  10  12
ATOM     12  C   UNL     1       2.213  -0.285   0.195  1.00  0.00    +0.040 A 
ATOM     13  C   UNL     1       3.263  -0.055   1.094  1.00  0.00    +0.014 A 
ATOM     14  C   UNL     1       1.931  -1.593  -0.221  1.00  0.00    +0.014 A 
ATOM     15  C   UNL     1       3.997  -1.127   1.603  1.00  0.00    +0.001 A 
ATOM     16  C   UNL     1       2.666  -2.662   0.292  1.00  0.00    +0.001 A 
ATOM     17  C   UNL     1       3.695  -2.429   1.206  1.00  0.00    +0.000 A 
ENDBRANCH  10  12
ENDBRANCH   1  10
BRANCH   1  18
ATOM     18  C   UNL     1      -0.611   1.663  -1.450  1.00  0.00    +0.141 A 
ATOM     19  C   UNL     1       0.069   2.252  -2.519  1.00  0.00    +0.048 A 
ATOM     20  N   UNL     1      -1.929   1.929  -1.255  1.00  0.00    -0.238 NA
ATOM     21  C   UNL     1      -0.599   3.125  -3.380  1.00  0.00    +0.005 A 
ATOM     22  C   UNL     1      -2.556   2.782  -2.095  1.00  0.00    +0.113 A 
ATOM     23  C   UNL     1      -1.939   3.401  -3.164  1.00  0.00    +0.020 A 
ENDBRANCH   1  18
TORSDOF 4
