MODEL 1
REMARK VINA RESULT:    -8.861      0.000      0.000
REMARK INTER + INTRA:         -11.871
REMARK INTER:                 -11.451
REMARK INTRA:                  -0.420
REMARK UNBOUND:                -0.420
REMARK SMILES c1ccc(-c2ncnc3ccc(N/N=N/Cc4ccccn4)cc23)cc1
REMARK SMILES IDX 14 1 15 2 13 3 12 5 5 6 6 7 24 8 7 9 23 10 9 11 8 12 10 13
REMARK SMILES IDX 11 14 4 15 1 16 2 17 26 18 3 19 25 20 16 21 17 22 18 23
REMARK SMILES IDX 22 24 19 25 21 26 20 27
REMARK H PARENT 13 4
ROOT
ATOM      1  N   UNL     1      26.743   2.524  52.509  1.00  0.00    -0.074 NA
ATOM      2  N   UNL     1      27.963   2.306  52.382  1.00  0.00    -0.164 NA
ENDROOT
BRANCH   1   3
ATOM      3  N   UNL     1      26.383   3.217  51.414  1.00  0.00    -0.260 N 
ATOM      4  H   UNL     1      26.622   4.202  51.431  1.00  0.00    +0.192 HD
BRANCH   3   5
ATOM      5  C   UNL     1      25.188   2.886  50.755  1.00  0.00    +0.059 A 
ATOM      6  C   UNL     1      22.055   0.846  51.332  1.00  0.00    +0.081 A 
ATOM      7  N   UNL     1      20.863   0.608  50.741  1.00  0.00    -0.236 NA
ATOM      8  C   UNL     1      23.021   1.709  50.787  1.00  0.00    +0.029 A 
ATOM      9  C   UNL     1      20.650   1.227  49.578  1.00  0.00    +0.223 A 
ATOM     10  C   UNL     1      24.276   2.026  51.377  1.00  0.00    +0.040 A 
ATOM     11  C   UNL     1      22.666   2.294  49.566  1.00  0.00    +0.074 A 
ATOM     12  N   UNL     1      21.498   2.059  48.960  1.00  0.00    -0.236 NA
ATOM     13  C   UNL     1      23.563   3.167  48.968  1.00  0.00    +0.031 A 
ATOM     14  C   UNL     1      24.801   3.472  49.550  1.00  0.00    +0.030 A 
BRANCH   6  15
ATOM     15  C   UNL     1      22.247   0.122  52.597  1.00  0.00    +0.001 A 
ATOM     16  C   UNL     1      22.603  -1.242  55.031  1.00  0.00    +0.000 A 
ATOM     17  C   UNL     1      23.711  -0.851  54.283  1.00  0.00    +0.001 A 
ATOM     18  C   UNL     1      21.318  -0.965  54.568  1.00  0.00    +0.001 A 
ATOM     19  C   UNL     1      23.535  -0.176  53.073  1.00  0.00    +0.010 A 
ATOM     20  C   UNL     1      21.142  -0.292  53.356  1.00  0.00    +0.010 A 
ENDBRANCH   6  15
ENDBRANCH   3   5
ENDBRANCH   1   3
BRANCH   2  21
ATOM     21  C   UNL     1      28.511   1.514  53.501  1.00  0.00    +0.225 C 
BRANCH  21  22
ATOM     22  C   UNL     1      28.441   0.011  53.327  1.00  0.00    +0.064 A 
ATOM     23  C   UNL     1      27.282  -0.628  52.888  1.00  0.00    +0.026 A 
ATOM     24  N   UNL     1      29.590  -0.674  53.568  1.00  0.00    -0.259 NA
ATOM     25  C   UNL     1      27.294  -2.010  52.716  1.00  0.00    +0.004 A 
ATOM     26  C   UNL     1      29.571  -2.013  53.393  1.00  0.00    +0.111 A 
ATOM     27  C   UNL     1      28.458  -2.720  52.974  1.00  0.00    +0.020 A 
ENDBRANCH  21  22
ENDBRANCH   2  21
TORSDOF 5
ENDMDL
MODEL 2
REMARK VINA RESULT:    -8.807      2.727      5.856
REMARK INTER + INTRA:         -11.802
REMARK INTER:                 -11.006
REMARK INTRA:                  -0.796
REMARK UNBOUND:                -0.420
REMARK SMILES c1ccc(-c2ncnc3ccc(N/N=N/Cc4ccccn4)cc23)cc1
REMARK SMILES IDX 14 1 15 2 13 3 12 5 5 6 6 7 24 8 7 9 23 10 9 11 8 12 10 13
REMARK SMILES IDX 11 14 4 15 1 16 2 17 26 18 3 19 25 20 16 21 17 22 18 23
REMARK SMILES IDX 22 24 19 25 21 26 20 27
REMARK H PARENT 13 4
ROOT
ATOM      1  N   UNL     1      24.882   3.599  50.926  1.00  0.00    -0.074 NA
ATOM      2  N   UNL     1      25.256   3.456  49.747  1.00  0.00    -0.164 NA
ENDROOT
BRANCH   1   3
ATOM      3  N   UNL     1      23.553   3.387  50.914  1.00  0.00    -0.260 N 
ATOM      4  H   UNL     1      22.987   4.217  50.784  1.00  0.00    +0.192 HD
BRANCH   3   5
ATOM      5  C   UNL     1      23.009   2.395  51.746  1.00  0.00    +0.059 A 
ATOM      6  C   UNL     1      24.159  -0.365  54.062  1.00  0.00    +0.081 A 
ATOM      7  N   UNL     1      23.639  -1.253  54.938  1.00  0.00    -0.236 NA
ATOM      8  C   UNL     1      23.374   0.551  53.342  1.00  0.00    +0.029 A 
ATOM      9  C   UNL     1      22.311  -1.233  55.074  1.00  0.00    +0.223 A 
ATOM     10  C   UNL     1      23.867   1.530  52.435  1.00  0.00    +0.040 A 
ATOM     11  C   UNL     1      21.998   0.465  53.583  1.00  0.00    +0.074 A 
ATOM     12  N   UNL     1      21.464  -0.417  54.435  1.00  0.00    -0.236 NA
ATOM     13  C   UNL     1      21.156   1.343  52.917  1.00  0.00    +0.031 A 
ATOM     14  C   UNL     1      21.645   2.302  52.019  1.00  0.00    +0.030 A 
BRANCH   6  15
ATOM     15  C   UNL     1      25.622  -0.445  53.934  1.00  0.00    +0.001 A 
ATOM     16  C   UNL     1      28.420  -0.570  53.682  1.00  0.00    +0.000 A 
ATOM     17  C   UNL     1      27.610  -1.296  52.813  1.00  0.00    +0.001 A 
ATOM     18  C   UNL     1      27.845   0.211  54.682  1.00  0.00    +0.001 A 
ATOM     19  C   UNL     1      26.220  -1.237  52.940  1.00  0.00    +0.010 A 
ATOM     20  C   UNL     1      26.454   0.268  54.810  1.00  0.00    +0.010 A 
ENDBRANCH   6  15
ENDBRANCH   3   5
ENDBRANCH   1   3
BRANCH   2  21
ATOM     21  C   UNL     1      26.715   3.625  49.596  1.00  0.00    +0.225 C 
BRANCH  21  22
ATOM     22  C   UNL     1      27.152   4.900  48.905  1.00  0.00    +0.064 A 
ATOM     23  C   UNL     1      26.276   5.965  48.699  1.00  0.00    +0.026 A 
ATOM     24  N   UNL     1      28.462   4.968  48.548  1.00  0.00    -0.259 NA
ATOM     25  C   UNL     1      26.750   7.123  48.087  1.00  0.00    +0.004 A 
ATOM     26  C   UNL     1      28.892   6.104  47.956  1.00  0.00    +0.111 A 
ATOM     27  C   UNL     1      28.083   7.197  47.706  1.00  0.00    +0.020 A 
ENDBRANCH  21  22
ENDBRANCH   2  21
TORSDOF 5
ENDMDL
MODEL 3
REMARK VINA RESULT:    -8.789      2.648      6.252
REMARK INTER + INTRA:         -11.778
REMARK INTER:                 -10.940
REMARK INTRA:                  -0.838
REMARK UNBOUND:                -0.420
REMARK SMILES c1ccc(-c2ncnc3ccc(N/N=N/Cc4ccccn4)cc23)cc1
REMARK SMILES IDX 14 1 15 2 13 3 12 5 5 6 6 7 24 8 7 9 23 10 9 11 8 12 10 13
REMARK SMILES IDX 11 14 4 15 1 16 2 17 26 18 3 19 25 20 16 21 17 22 18 23
REMARK SMILES IDX 22 24 19 25 21 26 20 27
REMARK H PARENT 13 4
ROOT
ATOM      1  N   UNL     1      23.466   3.302  50.775  1.00  0.00    -0.074 NA
ATOM      2  N   UNL     1      24.230   3.672  49.864  1.00  0.00    -0.164 NA
ENDROOT
BRANCH   1   3
ATOM      3  N   UNL     1      23.266   1.988  50.569  1.00  0.00    -0.260 N 
ATOM      4  H   UNL     1      22.770   1.757  49.716  1.00  0.00    +0.192 HD
BRANCH   3   5
ATOM      5  C   UNL     1      23.018   1.151  51.669  1.00  0.00    +0.059 A 
ATOM      6  C   UNL     1      24.919  -0.652  54.398  1.00  0.00    +0.081 A 
ATOM      7  N   UNL     1      24.674  -1.375  55.513  1.00  0.00    -0.236 NA
ATOM      8  C   UNL     1      23.900  -0.121  53.589  1.00  0.00    +0.029 A 
ATOM      9  C   UNL     1      23.389  -1.585  55.805  1.00  0.00    +0.223 A 
ATOM     10  C   UNL     1      24.094   0.675  52.427  1.00  0.00    +0.040 A 
ATOM     11  C   UNL     1      22.599  -0.415  54.014  1.00  0.00    +0.074 A 
ATOM     12  N   UNL     1      22.337  -1.141  55.106  1.00  0.00    -0.236 NA
ATOM     13  C   UNL     1      21.536   0.083  53.274  1.00  0.00    +0.031 A 
ATOM     14  C   UNL     1      21.733   0.862  52.125  1.00  0.00    +0.030 A 
BRANCH   6  15
ATOM     15  C   UNL     1      26.350  -0.471  54.109  1.00  0.00    +0.001 A 
ATOM     16  C   UNL     1      29.091  -0.149  53.571  1.00  0.00    +0.000 A 
ATOM     17  C   UNL     1      28.444   0.727  54.438  1.00  0.00    +0.001 A 
ATOM     18  C   UNL     1      28.377  -1.179  52.962  1.00  0.00    +0.001 A 
ATOM     19  C   UNL     1      27.082   0.569  54.704  1.00  0.00    +0.010 A 
ATOM     20  C   UNL     1      27.014  -1.336  53.226  1.00  0.00    +0.010 A 
ENDBRANCH   6  15
ENDBRANCH   3   5
ENDBRANCH   1   3
BRANCH   2  21
ATOM     21  C   UNL     1      24.579   5.103  49.969  1.00  0.00    +0.225 C 
BRANCH  21  22
ATOM     22  C   UNL     1      25.924   5.486  49.390  1.00  0.00    +0.064 A 
ATOM     23  C   UNL     1      26.882   4.530  49.052  1.00  0.00    +0.026 A 
ATOM     24  N   UNL     1      26.123   6.812  49.165  1.00  0.00    -0.259 NA
ATOM     25  C   UNL     1      28.087   4.947  48.491  1.00  0.00    +0.004 A 
ATOM     26  C   UNL     1      27.302   7.186  48.620  1.00  0.00    +0.111 A 
ATOM     27  C   UNL     1      28.305   6.300  48.271  1.00  0.00    +0.020 A 
ENDBRANCH  21  22
ENDBRANCH   2  21
TORSDOF 5
ENDMDL
MODEL 4
REMARK VINA RESULT:    -8.781      2.525      6.018
REMARK INTER + INTRA:         -11.769
REMARK INTER:                 -10.260
REMARK INTRA:                  -1.509
REMARK UNBOUND:                -0.420
REMARK SMILES c1ccc(-c2ncnc3ccc(N/N=N/Cc4ccccn4)cc23)cc1
REMARK SMILES IDX 14 1 15 2 13 3 12 5 5 6 6 7 24 8 7 9 23 10 9 11 8 12 10 13
REMARK SMILES IDX 11 14 4 15 1 16 2 17 26 18 3 19 25 20 16 21 17 22 18 23
REMARK SMILES IDX 22 24 19 25 21 26 20 27
REMARK H PARENT 13 4
ROOT
ATOM      1  N   UNL     1      21.520   3.119  50.724  1.00  0.00    -0.074 NA
ATOM      2  N   UNL     1      22.118   3.267  49.642  1.00  0.00    -0.164 NA
ENDROOT
BRANCH   1   3
ATOM      3  N   UNL     1      20.944   1.905  50.657  1.00  0.00    -0.260 N 
ATOM      4  H   UNL     1      20.033   1.886  50.212  1.00  0.00    +0.192 HD
BRANCH   3   5
ATOM      5  C   UNL     1      21.131   0.996  51.711  1.00  0.00    +0.059 A 
ATOM      6  C   UNL     1      23.898  -0.265  53.961  1.00  0.00    +0.081 A 
ATOM      7  N   UNL     1      24.060  -1.065  55.039  1.00  0.00    -0.236 NA
ATOM      8  C   UNL     1      22.648  -0.027  53.364  1.00  0.00    +0.029 A 
ATOM      9  C   UNL     1      22.954  -1.648  55.507  1.00  0.00    +0.223 A 
ATOM     10  C   UNL     1      22.411   0.829  52.253  1.00  0.00    +0.040 A 
ATOM     11  C   UNL     1      21.574  -0.699  53.959  1.00  0.00    +0.074 A 
ATOM     12  N   UNL     1      21.717  -1.505  55.016  1.00  0.00    -0.236 NA
ATOM     13  C   UNL     1      20.305  -0.508  53.433  1.00  0.00    +0.031 A 
ATOM     14  C   UNL     1      20.076   0.332  52.334  1.00  0.00    +0.030 A 
BRANCH   6  15
ATOM     15  C   UNL     1      25.149   0.333  53.472  1.00  0.00    +0.001 A 
ATOM     16  C   UNL     1      27.527   1.497  52.524  1.00  0.00    +0.000 A 
ATOM     17  C   UNL     1      27.164   0.218  52.109  1.00  0.00    +0.001 A 
ATOM     18  C   UNL     1      26.716   2.196  53.416  1.00  0.00    +0.001 A 
ATOM     19  C   UNL     1      25.985  -0.361  52.582  1.00  0.00    +0.010 A 
ATOM     20  C   UNL     1      25.538   1.614  53.892  1.00  0.00    +0.010 A 
ENDBRANCH   6  15
ENDBRANCH   3   5
ENDBRANCH   1   3
BRANCH   2  21
ATOM     21  C   UNL     1      22.841   4.552  49.571  1.00  0.00    +0.225 C 
BRANCH  21  22
ATOM     22  C   UNL     1      24.347   4.444  49.459  1.00  0.00    +0.064 A 
ATOM     23  C   UNL     1      25.021   3.249  49.705  1.00  0.00    +0.026 A 
ATOM     24  N   UNL     1      24.999   5.564  49.049  1.00  0.00    -0.259 NA
ATOM     25  C   UNL     1      26.405   3.207  49.551  1.00  0.00    +0.004 A 
ATOM     26  C   UNL     1      26.341   5.493  48.909  1.00  0.00    +0.111 A 
ATOM     27  C   UNL     1      27.081   4.349  49.146  1.00  0.00    +0.020 A 
ENDBRANCH  21  22
ENDBRANCH   2  21
TORSDOF 5
ENDMDL
MODEL 5
REMARK VINA RESULT:    -8.780      2.418      4.919
REMARK INTER + INTRA:         -11.767
REMARK INTER:                 -10.355
REMARK INTRA:                  -1.412
REMARK UNBOUND:                -0.420
REMARK SMILES c1ccc(-c2ncnc3ccc(N/N=N/Cc4ccccn4)cc23)cc1
REMARK SMILES IDX 14 1 15 2 13 3 12 5 5 6 6 7 24 8 7 9 23 10 9 11 8 12 10 13
REMARK SMILES IDX 11 14 4 15 1 16 2 17 26 18 3 19 25 20 16 21 17 22 18 23
REMARK SMILES IDX 22 24 19 25 21 26 20 27
REMARK H PARENT 13 4
ROOT
ATOM      1  N   UNL     1      21.859  -0.832  55.197  1.00  0.00    -0.074 NA
ATOM      2  N   UNL     1      22.757  -1.690  55.107  1.00  0.00    -0.164 NA
ENDROOT
BRANCH   1   3
ATOM      3  N   UNL     1      20.760  -1.401  54.670  1.00  0.00    -0.260 N 
ATOM      4  H   UNL     1      20.776  -2.414  54.633  1.00  0.00    +0.192 HD
BRANCH   3   5
ATOM      5  C   UNL     1      20.094  -0.759  53.614  1.00  0.00    +0.059 A 
ATOM      6  C   UNL     1      20.778   1.811  50.923  1.00  0.00    +0.081 A 
ATOM      7  N   UNL     1      20.169   2.356  49.846  1.00  0.00    -0.236 NA
ATOM      8  C   UNL     1      20.175   0.832  51.731  1.00  0.00    +0.029 A 
ATOM      9  C   UNL     1      18.931   1.926  49.593  1.00  0.00    +0.223 A 
ATOM     10  C   UNL     1      20.776   0.198  52.853  1.00  0.00    +0.040 A 
ATOM     11  C   UNL     1      18.877   0.472  51.349  1.00  0.00    +0.074 A 
ATOM     12  N   UNL     1      18.253   1.010  50.296  1.00  0.00    -0.236 NA
ATOM     13  C   UNL     1      18.217  -0.496  52.091  1.00  0.00    +0.031 A 
ATOM     14  C   UNL     1      18.811  -1.114  53.200  1.00  0.00    +0.030 A 
BRANCH   6  15
ATOM     15  C   UNL     1      22.130   2.335  51.170  1.00  0.00    +0.001 A 
ATOM     16  C   UNL     1      24.725   3.312  51.640  1.00  0.00    +0.000 A 
ATOM     17  C   UNL     1      23.767   3.364  52.650  1.00  0.00    +0.001 A 
ATOM     18  C   UNL     1      24.393   2.784  50.394  1.00  0.00    +0.001 A 
ATOM     19  C   UNL     1      22.478   2.882  52.416  1.00  0.00    +0.010 A 
ATOM     20  C   UNL     1      23.102   2.304  50.159  1.00  0.00    +0.010 A 
ENDBRANCH   6  15
ENDBRANCH   3   5
ENDBRANCH   1   3
BRANCH   2  21
ATOM     21  C   UNL     1      24.036  -1.227  55.681  1.00  0.00    +0.225 C 
BRANCH  21  22
ATOM     22  C   UNL     1      25.055  -0.730  54.677  1.00  0.00    +0.064 A 
ATOM     23  C   UNL     1      24.726  -0.505  53.342  1.00  0.00    +0.026 A 
ATOM     24  N   UNL     1      26.295  -0.463  55.166  1.00  0.00    -0.259 NA
ATOM     25  C   UNL     1      25.702  -0.015  52.476  1.00  0.00    +0.004 A 
ATOM     26  C   UNL     1      27.221   0.011  54.303  1.00  0.00    +0.111 A 
ATOM     27  C   UNL     1      26.975   0.248  52.963  1.00  0.00    +0.020 A 
ENDBRANCH  21  22
ENDBRANCH   2  21
TORSDOF 5
ENDMDL
MODEL 6
REMARK VINA RESULT:    -8.522      2.403      5.405
REMARK INTER + INTRA:         -11.434
REMARK INTER:                  -9.883
REMARK INTRA:                  -1.551
REMARK UNBOUND:                -0.420
REMARK SMILES c1ccc(-c2ncnc3ccc(N/N=N/Cc4ccccn4)cc23)cc1
REMARK SMILES IDX 14 1 15 2 13 3 12 5 5 6 6 7 24 8 7 9 23 10 9 11 8 12 10 13
REMARK SMILES IDX 11 14 4 15 1 16 2 17 26 18 3 19 25 20 16 21 17 22 18 23
REMARK SMILES IDX 22 24 19 25 21 26 20 27
REMARK H PARENT 13 4
ROOT
ATOM      1  N   UNL     1      25.221  -0.010  52.660  1.00  0.00    -0.074 NA
ATOM      2  N   UNL     1      25.890   1.019  52.872  1.00  0.00    -0.164 NA
ENDROOT
BRANCH   1   3
ATOM      3  N   UNL     1      24.551  -0.248  53.802  1.00  0.00    -0.260 N 
ATOM      4  H   UNL     1      25.045  -0.821  54.478  1.00  0.00    +0.192 HD
BRANCH   3   5
ATOM      5  C   UNL     1      23.157  -0.413  53.759  1.00  0.00    +0.059 A 
ATOM      6  C   UNL     1      20.226   0.462  51.533  1.00  0.00    +0.081 A 
ATOM      7  N   UNL     1      18.900   0.219  51.441  1.00  0.00    -0.236 NA
ATOM      8  C   UNL     1      21.031  -0.059  52.561  1.00  0.00    +0.029 A 
ATOM      9  C   UNL     1      18.374  -0.538  52.406  1.00  0.00    +0.223 A 
ATOM     10  C   UNL     1      22.435   0.132  52.692  1.00  0.00    +0.040 A 
ATOM     11  C   UNL     1      20.351  -0.839  53.503  1.00  0.00    +0.074 A 
ATOM     12  N   UNL     1      19.037  -1.078  53.437  1.00  0.00    -0.236 NA
ATOM     13  C   UNL     1      21.078  -1.398  54.544  1.00  0.00    +0.031 A 
ATOM     14  C   UNL     1      22.460  -1.202  54.673  1.00  0.00    +0.030 A 
BRANCH   6  15
ATOM     15  C   UNL     1      20.750   1.319  50.459  1.00  0.00    +0.001 A 
ATOM     16  C   UNL     1      21.724   2.967  48.400  1.00  0.00    +0.000 A 
ATOM     17  C   UNL     1      21.857   1.584  48.306  1.00  0.00    +0.001 A 
ATOM     18  C   UNL     1      21.117   3.535  49.518  1.00  0.00    +0.001 A 
ATOM     19  C   UNL     1      21.375   0.766  49.330  1.00  0.00    +0.010 A 
ATOM     20  C   UNL     1      20.638   2.716  50.544  1.00  0.00    +0.010 A 
ENDBRANCH   6  15
ENDBRANCH   3   5
ENDBRANCH   1   3
BRANCH   2  21
ATOM     21  C   UNL     1      26.665   1.438  51.687  1.00  0.00    +0.225 C 
BRANCH  21  22
ATOM     22  C   UNL     1      26.118   2.641  50.947  1.00  0.00    +0.064 A 
ATOM     23  C   UNL     1      24.843   3.145  51.199  1.00  0.00    +0.026 A 
ATOM     24  N   UNL     1      26.963   3.234  50.063  1.00  0.00    -0.259 NA
ATOM     25  C   UNL     1      24.412   4.275  50.507  1.00  0.00    +0.004 A 
ATOM     26  C   UNL     1      26.516   4.328  49.407  1.00  0.00    +0.111 A 
ATOM     27  C   UNL     1      25.262   4.880  49.592  1.00  0.00    +0.020 A 
ENDBRANCH  21  22
ENDBRANCH   2  21
TORSDOF 5
ENDMDL
MODEL 7
REMARK VINA RESULT:    -8.413      2.007      4.643
REMARK INTER + INTRA:         -11.292
REMARK INTER:                 -10.515
REMARK INTRA:                  -0.777
REMARK UNBOUND:                -0.420
REMARK SMILES c1ccc(-c2ncnc3ccc(N/N=N/Cc4ccccn4)cc23)cc1
REMARK SMILES IDX 14 1 15 2 13 3 12 5 5 6 6 7 24 8 7 9 23 10 9 11 8 12 10 13
REMARK SMILES IDX 11 14 4 15 1 16 2 17 26 18 3 19 25 20 16 21 17 22 18 23
REMARK SMILES IDX 22 24 19 25 21 26 20 27
REMARK H PARENT 13 4
ROOT
ATOM      1  N   UNL     1      24.253  -0.529  53.056  1.00  0.00    -0.074 NA
ATOM      2  N   UNL     1      24.993   0.461  53.208  1.00  0.00    -0.164 NA
ENDROOT
BRANCH   1   3
ATOM      3  N   UNL     1      23.262  -0.383  53.954  1.00  0.00    -0.260 N 
ATOM      4  H   UNL     1      23.419  -0.841  54.845  1.00  0.00    +0.192 HD
BRANCH   3   5
ATOM      5  C   UNL     1      21.931  -0.346  53.508  1.00  0.00    +0.059 A 
ATOM      6  C   UNL     1      19.913   0.945  50.581  1.00  0.00    +0.081 A 
ATOM      7  N   UNL     1      18.650   0.895  50.104  1.00  0.00    -0.236 NA
ATOM      8  C   UNL     1      20.309   0.311  51.771  1.00  0.00    +0.029 A 
ATOM      9  C   UNL     1      17.770   0.217  50.844  1.00  0.00    +0.223 A 
ATOM     10  C   UNL     1      21.628   0.300  52.304  1.00  0.00    +0.040 A 
ATOM     11  C   UNL     1      19.287  -0.367  52.445  1.00  0.00    +0.074 A 
ATOM     12  N   UNL     1      18.028  -0.416  51.996  1.00  0.00    -0.236 NA
ATOM     13  C   UNL     1      19.600  -1.027  53.624  1.00  0.00    +0.031 A 
ATOM     14  C   UNL     1      20.899  -1.031  54.149  1.00  0.00    +0.030 A 
BRANCH   6  15
ATOM     15  C   UNL     1      20.836   1.723  49.740  1.00  0.00    +0.001 A 
ATOM     16  C   UNL     1      22.620   3.193  48.140  1.00  0.00    +0.000 A 
ATOM     17  C   UNL     1      21.986   3.805  49.218  1.00  0.00    +0.001 A 
ATOM     18  C   UNL     1      22.363   1.856  47.848  1.00  0.00    +0.001 A 
ATOM     19  C   UNL     1      21.098   3.076  50.011  1.00  0.00    +0.010 A 
ATOM     20  C   UNL     1      21.471   1.127  48.640  1.00  0.00    +0.010 A 
ENDBRANCH   6  15
ENDBRANCH   3   5
ENDBRANCH   1   3
BRANCH   2  21
ATOM     21  C   UNL     1      26.124   0.468  52.259  1.00  0.00    +0.225 C 
BRANCH  21  22
ATOM     22  C   UNL     1      27.439  -0.036  52.815  1.00  0.00    +0.064 A 
ATOM     23  C   UNL     1      27.777  -1.389  52.799  1.00  0.00    +0.026 A 
ATOM     24  N   UNL     1      28.295   0.912  53.280  1.00  0.00    -0.259 NA
ATOM     25  C   UNL     1      29.018  -1.784  53.296  1.00  0.00    +0.004 A 
ATOM     26  C   UNL     1      29.491   0.498  53.755  1.00  0.00    +0.111 A 
ATOM     27  C   UNL     1      29.893  -0.824  53.785  1.00  0.00    +0.020 A 
ENDBRANCH  21  22
ENDBRANCH   2  21
TORSDOF 5
ENDMDL
MODEL 8
REMARK VINA RESULT:    -8.213      2.677      5.464
REMARK INTER + INTRA:         -11.034
REMARK INTER:                  -9.768
REMARK INTRA:                  -1.266
REMARK UNBOUND:                -0.420
REMARK SMILES c1ccc(-c2ncnc3ccc(N/N=N/Cc4ccccn4)cc23)cc1
REMARK SMILES IDX 14 1 15 2 13 3 12 5 5 6 6 7 24 8 7 9 23 10 9 11 8 12 10 13
REMARK SMILES IDX 11 14 4 15 1 16 2 17 26 18 3 19 25 20 16 21 17 22 18 23
REMARK SMILES IDX 22 24 19 25 21 26 20 27
REMARK H PARENT 13 4
ROOT
ATOM      1  N   UNL     1      21.478  -0.813  54.680  1.00  0.00    -0.074 NA
ATOM      2  N   UNL     1      22.450  -1.588  54.734  1.00  0.00    -0.164 NA
ENDROOT
BRANCH   1   3
ATOM      3  N   UNL     1      20.427  -1.573  54.326  1.00  0.00    -0.260 N 
ATOM      4  H   UNL     1      20.624  -2.564  54.236  1.00  0.00    +0.192 HD
BRANCH   3   5
ATOM      5  C   UNL     1      19.473  -1.054  53.435  1.00  0.00    +0.059 A 
ATOM      6  C   UNL     1      19.291   1.238  50.432  1.00  0.00    +0.081 A 
ATOM      7  N   UNL     1      18.391   1.659  49.516  1.00  0.00    -0.236 NA
ATOM      8  C   UNL     1      18.972   0.337  51.462  1.00  0.00    +0.029 A 
ATOM      9  C   UNL     1      17.150   1.185  49.651  1.00  0.00    +0.223 A 
ATOM     10  C   UNL     1      19.881  -0.169  52.432  1.00  0.00    +0.040 A 
ATOM     11  C   UNL     1      17.637  -0.083  51.484  1.00  0.00    +0.074 A 
ATOM     12  N   UNL     1      16.729   0.334  50.595  1.00  0.00    -0.236 NA
ATOM     13  C   UNL     1      17.245  -0.981  52.465  1.00  0.00    +0.031 A 
ATOM     14  C   UNL     1      18.143  -1.472  53.423  1.00  0.00    +0.030 A 
BRANCH   6  15
ATOM     15  C   UNL     1      20.634   1.808  50.251  1.00  0.00    +0.001 A 
ATOM     16  C   UNL     1      23.192   2.924  49.903  1.00  0.00    +0.000 A 
ATOM     17  C   UNL     1      22.660   2.084  48.928  1.00  0.00    +0.001 A 
ATOM     18  C   UNL     1      22.460   3.204  51.055  1.00  0.00    +0.001 A 
ATOM     19  C   UNL     1      21.391   1.527  49.101  1.00  0.00    +0.010 A 
ATOM     20  C   UNL     1      21.192   2.644  51.230  1.00  0.00    +0.010 A 
ENDBRANCH   6  15
ENDBRANCH   3   5
ENDBRANCH   1   3
BRANCH   2  21
ATOM     21  C   UNL     1      23.692  -0.905  55.150  1.00  0.00    +0.225 C 
BRANCH  21  22
ATOM     22  C   UNL     1      24.617  -0.500  54.022  1.00  0.00    +0.064 A 
ATOM     23  C   UNL     1      24.291   0.520  53.129  1.00  0.00    +0.026 A 
ATOM     24  N   UNL     1      25.810  -1.149  53.964  1.00  0.00    -0.259 NA
ATOM     25  C   UNL     1      25.201   0.867  52.133  1.00  0.00    +0.004 A 
ATOM     26  C   UNL     1      26.673  -0.791  52.988  1.00  0.00    +0.111 A 
ATOM     27  C   UNL     1      26.416   0.200  52.058  1.00  0.00    +0.020 A 
ENDBRANCH  21  22
ENDBRANCH   2  21
TORSDOF 5
ENDMDL
MODEL 9
REMARK VINA RESULT:    -8.080      2.029      7.286
REMARK INTER + INTRA:         -10.862
REMARK INTER:                  -9.366
REMARK INTRA:                  -1.496
REMARK UNBOUND:                -0.420
REMARK SMILES c1ccc(-c2ncnc3ccc(N/N=N/Cc4ccccn4)cc23)cc1
REMARK SMILES IDX 14 1 15 2 13 3 12 5 5 6 6 7 24 8 7 9 23 10 9 11 8 12 10 13
REMARK SMILES IDX 11 14 4 15 1 16 2 17 26 18 3 19 25 20 16 21 17 22 18 23
REMARK SMILES IDX 22 24 19 25 21 26 20 27
REMARK H PARENT 13 4
ROOT
ATOM      1  N   UNL     1      19.764   1.044  52.295  1.00  0.00    -0.074 NA
ATOM      2  N   UNL     1      19.281   0.261  51.455  1.00  0.00    -0.164 NA
ENDROOT
BRANCH   1   3
ATOM      3  N   UNL     1      20.048   0.290  53.372  1.00  0.00    -0.260 N 
ATOM      4  H   UNL     1      19.463   0.461  54.183  1.00  0.00    +0.192 HD
BRANCH   3   5
ATOM      5  C   UNL     1      21.384  -0.050  53.639  1.00  0.00    +0.059 A 
ATOM      6  C   UNL     1      24.869   1.279  53.014  1.00  0.00    +0.081 A 
ATOM      7  N   UNL     1      26.148   1.006  53.355  1.00  0.00    -0.236 NA
ATOM      8  C   UNL     1      23.777   0.516  53.460  1.00  0.00    +0.029 A 
ATOM      9  C   UNL     1      26.332  -0.061  54.136  1.00  0.00    +0.223 A 
ATOM     10  C   UNL     1      22.410   0.774  53.164  1.00  0.00    +0.040 A 
ATOM     11  C   UNL     1      24.113  -0.571  54.275  1.00  0.00    +0.074 A 
ATOM     12  N   UNL     1      25.373  -0.866  54.611  1.00  0.00    -0.236 NA
ATOM     13  C   UNL     1      23.089  -1.369  54.764  1.00  0.00    +0.031 A 
ATOM     14  C   UNL     1      21.743  -1.114  54.465  1.00  0.00    +0.030 A 
BRANCH   6  15
ATOM     15  C   UNL     1      24.726   2.450  52.134  1.00  0.00    +0.001 A 
ATOM     16  C   UNL     1      24.425   4.681  50.450  1.00  0.00    +0.000 A 
ATOM     17  C   UNL     1      25.245   3.624  50.065  1.00  0.00    +0.001 A 
ATOM     18  C   UNL     1      23.761   4.637  51.674  1.00  0.00    +0.001 A 
ATOM     19  C   UNL     1      25.397   2.516  50.902  1.00  0.00    +0.010 A 
ATOM     20  C   UNL     1      23.916   3.530  52.514  1.00  0.00    +0.010 A 
ENDBRANCH   6  15
ENDBRANCH   3   5
ENDBRANCH   1   3
BRANCH   2  21
ATOM     21  C   UNL     1      18.945   0.935  50.186  1.00  0.00    +0.225 C 
BRANCH  21  22
ATOM     22  C   UNL     1      20.088   1.675  49.522  1.00  0.00    +0.064 A 
ATOM     23  C   UNL     1      21.293   1.046  49.213  1.00  0.00    +0.026 A 
ATOM     24  N   UNL     1      19.851   2.972  49.194  1.00  0.00    -0.259 NA
ATOM     25  C   UNL     1      22.293   1.774  48.571  1.00  0.00    +0.004 A 
ATOM     26  C   UNL     1      20.839   3.653  48.573  1.00  0.00    +0.111 A 
ATOM     27  C   UNL     1      22.065   3.103  48.245  1.00  0.00    +0.020 A 
ENDBRANCH  21  22
ENDBRANCH   2  21
TORSDOF 5
ENDMDL
