REMARK SMILES N#CC(C#N)=C(C#N)C(N)=Cc1ccc(-c2cccc(Br)c2)[nH]1
REMARK SMILES IDX 12 1 13 2 14 3 15 4 23 5 11 7 9 8 6 9 1 10 2 11 3 12 4 13
REMARK SMILES IDX 5 14 7 15 8 16 10 17 16 20 17 21 22 22 18 23 20 24 19 25
REMARK SMILES IDX 21 26
REMARK H PARENT 23 6 10 18 10 19
ROOT
ATOM      1  C   UNL     1      -0.497   0.304  -0.486  1.00  0.00    +0.041 A 
ATOM      2  C   UNL     1      -0.084   0.131  -1.790  1.00  0.00    +0.028 A 
ATOM      3  C   UNL     1       1.328   0.020  -1.780  1.00  0.00    +0.029 A 
ATOM      4  C   UNL     1       1.764   0.147  -0.472  1.00  0.00    +0.046 A 
ATOM      5  N   UNL     1       0.632   0.326   0.298  1.00  0.00    -0.355 N 
ATOM      6  H   UNL     1       0.639   0.410   1.306  1.00  0.00    +0.167 HD
ENDROOT
BRANCH   1   7
ATOM      7  C   UNL     1      -1.752   0.479   0.149  1.00  0.00    +0.053 C 
ATOM      8  C   UNL     1      -2.835  -0.286  -0.119  1.00  0.00    +0.054 C 
BRANCH   8   9
ATOM      9  C   UNL     1      -4.101  -0.015   0.596  1.00  0.00    +0.103 C 
ATOM     10  N   UNL     1      -5.435   0.124  -2.598  1.00  0.00    -0.192 NA
ATOM     11  C   UNL     1      -5.398   0.153  -1.438  1.00  0.00    +0.112 C 
ATOM     12  C   UNL     1      -5.291   0.167  -0.020  1.00  0.00    +0.149 C 
ATOM     13  C   UNL     1      -6.487   0.407   0.715  1.00  0.00    +0.112 C 
ATOM     14  N   UNL     1      -7.461   0.611   1.311  1.00  0.00    -0.192 NA
ATOM     15  C   UNL     1      -4.016   0.028   2.027  1.00  0.00    +0.103 C 
ATOM     16  N   UNL     1      -3.935   0.095   3.182  1.00  0.00    -0.192 NA
ENDBRANCH   8   9
BRANCH   8  17
ATOM     17  N   UNL     1      -2.826  -1.403  -0.950  1.00  0.00    -0.398 N 
ATOM     18  H   UNL     1      -3.306  -1.226  -1.836  1.00  0.00    +0.156 HD
ATOM     19  H   UNL     1      -1.868  -1.655  -1.208  1.00  0.00    +0.156 HD
ENDBRANCH   8  17
ENDBRANCH   1   7
BRANCH   4  20
ATOM     20  C   UNL     1       3.115   0.096   0.091  1.00  0.00    -0.001 A 
ATOM     21  C   UNL     1       3.472   0.889   1.192  1.00  0.00    +0.010 A 
ATOM     22  C   UNL     1       4.081  -0.748  -0.472  1.00  0.00    +0.026 A 
ATOM     23  C   UNL     1       4.763   0.834   1.724  1.00  0.00    +0.002 A 
ATOM     24  C   UNL     1       5.369  -0.800   0.064  1.00  0.00    +0.018 A 
ATOM     25  C   UNL     1       5.715  -0.014   1.160  1.00  0.00    +0.016 A 
ATOM     26 Br   UNL     1       6.658  -1.951  -0.706  1.00  0.00    -0.051 Br
ENDBRANCH   4  20
TORSDOF 4
