REMARK SMILES Cc1cc(-c2ncnc3c2C(=C(C#N)C(N)=C(C#N)C#N)C(=O)N3)[nH]c1N1CCOCC1
REMARK SMILES IDX 5 1 6 2 7 3 8 4 9 5 10 6 11 7 12 8 13 9 14 10 22 11 23 12
REMARK SMILES IDX 24 13 4 15 2 16 3 17 26 18 25 19 1 20 27 22 28 23 32 24
REMARK SMILES IDX 29 25 31 26 30 27 15 28 17 29 18 30 20 31 19 32 21 33 16 34
REMARK H PARENT 24 14 25 21 16 35 16 36
ROOT
ATOM      1  C   UNL     1       0.664  -1.901  -0.979  1.00  0.00    +0.100 A 
ATOM      2  N   UNL     1       0.118  -2.835  -1.796  1.00  0.00    -0.234 NA
ATOM      3  C   UNL     1       0.957  -3.732  -2.347  1.00  0.00    +0.225 A 
ATOM      4  N   UNL     1       2.277  -3.802  -2.143  1.00  0.00    -0.218 NA
ATOM      5  C   UNL     1       2.744  -2.822  -1.370  1.00  0.00    +0.145 A 
ATOM      6  C   UNL     1       2.018  -1.785  -0.811  1.00  0.00    +0.059 A 
ATOM      7  C   UNL     1       2.982  -0.940  -0.094  1.00  0.00    +0.073 C 
ATOM      8  C   UNL     1       2.930   0.349   0.307  1.00  0.00    +0.091 C 
ATOM      9  C   UNL     1       1.827   1.202  -0.021  1.00  0.00    +0.102 C 
ATOM     10  N   UNL     1       0.997   1.947  -0.340  1.00  0.00    -0.192 NA
ATOM     11  C   UNL     1       4.279  -1.713  -0.092  1.00  0.00    +0.259 C 
ATOM     12  O   UNL     1       5.308  -1.437   0.493  1.00  0.00    -0.269 OA
ATOM     13  N   UNL     1       4.061  -2.775  -0.939  1.00  0.00    -0.306 N 
ATOM     14  H   UNL     1       4.745  -3.478  -1.173  1.00  0.00    +0.171 HD
ENDROOT
BRANCH   1  15
ATOM     15  C   UNL     1      -0.331  -1.185  -0.199  1.00  0.00    +0.067 A 
ATOM     16  C   UNL     1      -1.637  -0.217   1.403  1.00  0.00    -0.008 A 
ATOM     17  C   UNL     1      -0.412  -0.909   1.152  1.00  0.00    +0.035 A 
ATOM     18  C   UNL     1      -2.290  -0.102   0.185  1.00  0.00    +0.109 A 
ATOM     19  N   UNL     1      -1.504  -0.732  -0.751  1.00  0.00    -0.340 N 
ATOM     20  C   UNL     1      -2.061   0.285   2.736  1.00  0.00    +0.048 C 
ATOM     21  H   UNL     1      -1.767  -0.874  -1.714  1.00  0.00    +0.168 HD
BRANCH  18  22
ATOM     22  N   UNL     1      -3.482   0.433  -0.200  1.00  0.00    -0.353 N 
ATOM     23  C   UNL     1      -3.633   1.083  -1.519  1.00  0.00    +0.146 C 
ATOM     24  C   UNL     1      -4.525   0.776   0.778  1.00  0.00    +0.146 C 
ATOM     25  C   UNL     1      -4.493   2.351  -1.405  1.00  0.00    +0.181 C 
ATOM     26  C   UNL     1      -5.857   1.030   0.055  1.00  0.00    +0.181 C 
ATOM     27  O   UNL     1      -5.811   2.110  -0.891  1.00  0.00    -0.378 OA
ENDBRANCH  18  22
ENDBRANCH   1  15
BRANCH   8  28
ATOM     28  C   UNL     1       4.050   1.044   0.984  1.00  0.00    +0.079 C 
ATOM     29  C   UNL     1       5.040   1.643   0.265  1.00  0.00    +0.153 C 
ATOM     30  C   UNL     1       6.113   2.313   0.917  1.00  0.00    +0.113 C 
ATOM     31  C   UNL     1       5.058   1.610  -1.159  1.00  0.00    +0.113 C 
ATOM     32  N   UNL     1       6.980   2.849   1.472  1.00  0.00    -0.192 NA
ATOM     33  N   UNL     1       5.031   1.542  -2.317  1.00  0.00    -0.192 NA
BRANCH  28  34
ATOM     34  N   UNL     1       3.982   1.019   2.377  1.00  0.00    -0.396 N 
ATOM     35  H   UNL     1       3.548   0.180   2.762  1.00  0.00    +0.156 HD
ATOM     36  H   UNL     1       4.860   1.217   2.860  1.00  0.00    +0.156 HD
ENDBRANCH  28  34
ENDBRANCH   8  28
TORSDOF 4
