REMARK SMILES C/N=N/Nc1ccc2ncnc(-c3ccc(O)c([N+](=O)[O-])c3)c2c1
REMARK SMILES IDX 5 1 6 2 7 3 8 4 9 5 10 6 11 7 12 8 23 9 24 10 4 11 3 13 2 14
REMARK SMILES IDX 1 15 13 16 14 17 22 18 15 19 18 20 16 21 19 22 20 23 21 24
REMARK SMILES IDX 17 25
REMARK H PARENT 4 12 17 26
ROOT
ATOM      1  C   UNL     1       2.271   0.441  -0.369  1.00  0.00    +0.059 A 
ATOM      2  C   UNL     1       2.861   0.513  -1.630  1.00  0.00    +0.030 A 
ATOM      3  C   UNL     1       2.091   0.372  -2.791  1.00  0.00    +0.031 A 
ATOM      4  C   UNL     1       0.725   0.140  -2.743  1.00  0.00    +0.074 A 
ATOM      5  N   UNL     1       0.059   0.005  -3.895  1.00  0.00    -0.236 NA
ATOM      6  C   UNL     1      -1.253  -0.243  -3.813  1.00  0.00    +0.223 A 
ATOM      7  N   UNL     1      -1.962  -0.358  -2.687  1.00  0.00    -0.236 NA
ATOM      8  C   UNL     1      -1.276  -0.199  -1.533  1.00  0.00    +0.082 A 
ATOM      9  C   UNL     1       0.109   0.045  -1.490  1.00  0.00    +0.029 A 
ATOM     10  C   UNL     1       0.897   0.177  -0.312  1.00  0.00    +0.040 A 
ENDROOT
BRANCH   1  11
ATOM     11  N   UNL     1       3.012   0.503   0.822  1.00  0.00    -0.260 N 
ATOM     12  H   UNL     1       2.494   0.740   1.660  1.00  0.00    +0.192 HD
BRANCH  11  13
ATOM     13  N   UNL     1       4.269   0.982   0.787  1.00  0.00    -0.075 NA
ATOM     14  N   UNL     1       4.537   1.305   1.959  1.00  0.00    -0.174 NA
ATOM     15  C   UNL     1       5.897   1.836   2.072  1.00  0.00    +0.200 C 
ENDBRANCH  11  13
ENDBRANCH   1  11
BRANCH   8  16
ATOM     16  C   UNL     1      -2.127  -0.305  -0.336  1.00  0.00    +0.008 A 
ATOM     17  C   UNL     1      -2.324   0.792   0.520  1.00  0.00    +0.015 A 
ATOM     18  C   UNL     1      -2.796  -1.507  -0.045  1.00  0.00    +0.100 A 
ATOM     19  C   UNL     1      -3.145   0.689   1.646  1.00  0.00    +0.054 A 
ATOM     20  C   UNL     1      -3.625  -1.609   1.085  1.00  0.00    +0.311 A 
ATOM     21  C   UNL     1      -3.796  -0.509   1.935  1.00  0.00    +0.194 A 
BRANCH  20  22
ATOM     22  N   UNL     1      -4.296  -2.882   1.355  1.00  0.00    +0.066 N 
ATOM     23  O   UNL     1      -5.083  -2.921   2.315  1.00  0.00    -0.258 OA
ATOM     24  O   UNL     1      -4.039  -3.846   0.622  1.00  0.00    -0.258 OA
ENDBRANCH  20  22
BRANCH  21  25
ATOM     25  O   UNL     1      -4.572  -0.492   3.062  1.00  0.00    -0.502 OA
ATOM     26  H   UNL     1      -5.033  -1.352   3.164  1.00  0.00    +0.293 HD
ENDBRANCH  21  25
ENDBRANCH   8  16
TORSDOF 5
