REMARK SMILES CN(c1ccc(F)c(Cl)c1)c1ccc(-c2cc(O)ccc2[N+](=O)[O-])[nH]1
REMARK SMILES IDX 11 1 12 2 13 3 14 4 25 5 2 7 1 8 3 9 4 10 10 11 5 12 8 13
REMARK SMILES IDX 6 14 9 15 7 16 15 17 16 18 21 19 17 20 20 21 19 22 22 23
REMARK SMILES IDX 23 24 24 25 18 26
REMARK H PARENT 25 6 18 27
ROOT
ATOM      1  C   UNL     1       0.904   0.122  -1.494  1.00  0.00    +0.110 A 
ATOM      2  C   UNL     1       0.277   0.859  -2.478  1.00  0.00    +0.047 A 
ATOM      3  C   UNL     1      -1.066   1.071  -2.074  1.00  0.00    +0.031 A 
ATOM      4  C   UNL     1      -1.253   0.436  -0.860  1.00  0.00    +0.054 A 
ATOM      5  N   UNL     1      -0.048  -0.152  -0.540  1.00  0.00    -0.341 N 
ATOM      6  H   UNL     1       0.124  -0.725   0.273  1.00  0.00    +0.168 HD
ENDROOT
BRANCH   1   7
ATOM      7  N   UNL     1       2.169  -0.380  -1.369  1.00  0.00    -0.331 N 
ATOM      8  C   UNL     1       3.099  -0.185  -2.491  1.00  0.00    +0.152 C 
BRANCH   7   9
ATOM      9  C   UNL     1       2.849  -0.451  -0.122  1.00  0.00    +0.044 A 
ATOM     10  C   UNL     1       3.673  -1.554   0.164  1.00  0.00    +0.029 A 
ATOM     11  C   UNL     1       2.717   0.555   0.852  1.00  0.00    +0.050 A 
ATOM     12  C   UNL     1       4.345  -1.653   1.385  1.00  0.00    +0.043 A 
ATOM     13  C   UNL     1       3.389   0.456   2.072  1.00  0.00    +0.078 A 
ATOM     14  C   UNL     1       4.198  -0.646   2.332  1.00  0.00    +0.141 A 
ATOM     15 Cl   UNL     1       3.205   1.706   3.241  1.00  0.00    -0.081 Cl
ATOM     16  F   UNL     1       4.850  -0.760   3.499  1.00  0.00    -0.205 F 
ENDBRANCH   7   9
ENDBRANCH   1   7
BRANCH   4  17
ATOM     17  C   UNL     1      -2.432   0.329  -0.001  1.00  0.00    +0.079 A 
ATOM     18  C   UNL     1      -2.316   0.658   1.358  1.00  0.00    +0.063 A 
ATOM     19  C   UNL     1      -3.698  -0.070  -0.458  1.00  0.00    +0.278 A 
ATOM     20  C   UNL     1      -3.424   0.589   2.205  1.00  0.00    +0.116 A 
ATOM     21  C   UNL     1      -4.816  -0.137   0.388  1.00  0.00    +0.090 A 
ATOM     22  C   UNL     1      -4.673   0.198   1.733  1.00  0.00    +0.053 A 
BRANCH  19  23
ATOM     23  N   UNL     1      -3.892  -0.473  -1.833  1.00  0.00    +0.063 N 
ATOM     24  O   UNL     1      -3.518  -1.611  -2.146  1.00  0.00    -0.258 OA
ATOM     25  O   UNL     1      -4.469   0.333  -2.576  1.00  0.00    -0.258 OA
ENDBRANCH  19  23
BRANCH  20  26
ATOM     26  O   UNL     1      -3.235   0.925   3.513  1.00  0.00    -0.508 OA
ATOM     27  H   UNL     1      -4.081   0.860   3.987  1.00  0.00    +0.293 HD
ENDBRANCH  20  26
ENDBRANCH   4  17
TORSDOF 5
