REMARK SMILES CCN(C)CC/N=N/Nc1ccc2ncnc(-c3cccc(Cl)c3)c2c1
REMARK SMILES IDX 7 1 8 2 6 3 5 4 3 5 4 6 2 7 1 8 9 9 10 11 11 12 26 13 12 14
REMARK SMILES IDX 25 15 13 16 17 17 14 18 16 19 15 20 18 21 19 22 24 23 20 24
REMARK SMILES IDX 22 25 21 26 23 27
REMARK H PARENT 9 10
ROOT
ATOM      1  N   UNL     1       2.268   0.506   0.650  1.00  0.00    -0.170 NA
ATOM      2  N   UNL     1       1.433   0.314   1.554  1.00  0.00    -0.075 NA
ENDROOT
BRANCH   1   3
ATOM      3  C   UNL     1       3.582   0.906   1.175  1.00  0.00    +0.184 C 
BRANCH   3   4
ATOM      4  C   UNL     1       4.680   0.013   0.566  1.00  0.00    +0.109 C 
BRANCH   4   5
ATOM      5  N   UNL     1       4.800   0.047  -0.905  1.00  0.00    -0.305 NA
ATOM      6  C   UNL     1       5.755  -0.963  -1.364  1.00  0.00    +0.105 C 
BRANCH   5   7
ATOM      7  C   UNL     1       5.079   1.371  -1.476  1.00  0.00    +0.081 C 
ATOM      8  C   UNL     1       6.348   2.066  -0.992  1.00  0.00    +0.021 C 
ENDBRANCH   5   7
ENDBRANCH   4   5
ENDBRANCH   3   4
ENDBRANCH   1   3
BRANCH   2   9
ATOM      9  N   UNL     1       0.316  -0.087   0.924  1.00  0.00    -0.260 N 
ATOM     10  H   UNL     1       0.299   0.094  -0.074  1.00  0.00    +0.192 HD
BRANCH   9  11
ATOM     11  C   UNL     1      -0.912  -0.067   1.601  1.00  0.00    +0.059 A 
ATOM     12  C   UNL     1      -1.007   0.037   2.988  1.00  0.00    +0.030 A 
ATOM     13  C   UNL     1      -2.095  -0.280   0.885  1.00  0.00    +0.040 A 
ATOM     14  C   UNL     1      -2.250  -0.034   3.630  1.00  0.00    +0.031 A 
ATOM     15  C   UNL     1      -3.362  -0.340   1.531  1.00  0.00    +0.029 A 
ATOM     16  C   UNL     1      -3.430  -0.223   2.925  1.00  0.00    +0.074 A 
ATOM     17  C   UNL     1      -4.601  -0.531   0.894  1.00  0.00    +0.082 A 
ATOM     18  N   UNL     1      -4.578  -0.298   3.608  1.00  0.00    -0.236 NA
ATOM     19  N   UNL     1      -5.769  -0.629   1.570  1.00  0.00    -0.236 NA
ATOM     20  C   UNL     1      -5.693  -0.505   2.898  1.00  0.00    +0.223 A 
BRANCH  17  21
ATOM     21  C   UNL     1      -4.758  -0.641  -0.565  1.00  0.00    +0.002 A 
ATOM     22  C   UNL     1      -4.494   0.452  -1.412  1.00  0.00    +0.010 A 
ATOM     23  C   UNL     1      -5.200  -1.843  -1.143  1.00  0.00    +0.030 A 
ATOM     24  C   UNL     1      -4.646   0.342  -2.797  1.00  0.00    +0.002 A 
ATOM     25  C   UNL     1      -5.351  -1.948  -2.526  1.00  0.00    +0.041 A 
ATOM     26  C   UNL     1      -5.071  -0.863  -3.355  1.00  0.00    +0.020 A 
ATOM     27 Cl   UNL     1      -5.884  -3.434  -3.216  1.00  0.00    -0.084 Cl
ENDBRANCH  17  21
ENDBRANCH   9  11
ENDBRANCH   2   9
TORSDOF 7
