MODEL 1
REMARK VINA RESULT:    -7.949      0.000      0.000
REMARK INTER + INTRA:          -9.833
REMARK INTER:                  -9.575
REMARK INTRA:                  -0.258
REMARK UNBOUND:                -0.258
REMARK SMILES O=C(O)c1cc(O)c(O)c(-c2cccc(Br)c2)c1
REMARK SMILES IDX 4 1 5 2 6 3 8 4 10 5 18 6 2 7 1 8 3 9 7 11 11 13 12 14 17 15
REMARK SMILES IDX 13 16 15 17 14 18 16 19 9 20
REMARK H PARENT 3 10 7 12 9 21
ROOT
ATOM      1  C   UNL     1      28.399  -0.920  53.485  1.00  0.00    +0.064 A 
ATOM      2  C   UNL     1      29.082   0.215  53.931  1.00  0.00    +0.065 A 
ATOM      3  C   UNL     1      28.393   1.412  54.046  1.00  0.00    +0.158 A 
ATOM      4  C   UNL     1      27.038   1.503  53.726  1.00  0.00    +0.165 A 
ATOM      5  C   UNL     1      26.327   0.378  53.283  1.00  0.00    +0.028 A 
ATOM      6  C   UNL     1      27.032  -0.836  53.164  1.00  0.00    +0.028 A 
ENDROOT
BRANCH   1   7
ATOM      7  C   UNL     1      29.155  -2.191  53.368  1.00  0.00    +0.335 C 
ATOM      8  O   UNL     1      30.312  -2.368  53.699  1.00  0.00    -0.246 OA
BRANCH   7   9
ATOM      9  O   UNL     1      28.421  -3.184  52.838  1.00  0.00    -0.478 OA
ATOM     10  H   UNL     1      28.671  -3.177  51.889  1.00  0.00    +0.297 HD
ENDBRANCH   7   9
ENDBRANCH   1   7
BRANCH   3  11
ATOM     11  O   UNL     1      29.064   2.522  54.477  1.00  0.00    -0.504 OA
ATOM     12  H   UNL     1      29.942   2.464  54.049  1.00  0.00    +0.293 HD
ENDBRANCH   3  11
BRANCH   5  13
ATOM     13  C   UNL     1      24.896   0.421  52.955  1.00  0.00    -0.013 A 
ATOM     14  C   UNL     1      24.422   1.246  51.922  1.00  0.00    +0.009 A 
ATOM     15  C   UNL     1      23.974  -0.362  53.666  1.00  0.00    +0.024 A 
ATOM     16  C   UNL     1      23.063   1.283  51.601  1.00  0.00    +0.002 A 
ATOM     17  C   UNL     1      22.617  -0.320  53.343  1.00  0.00    +0.018 A 
ATOM     18  C   UNL     1      22.158   0.498  52.314  1.00  0.00    +0.016 A 
ATOM     19 Br   UNL     1      21.391  -1.384  54.311  1.00  0.00    -0.051 Br
ENDBRANCH   5  13
BRANCH   4  20
ATOM     20  O   UNL     1      26.470   2.747  53.860  1.00  0.00    -0.504 OA
ATOM     21  H   UNL     1      26.241   2.880  54.797  1.00  0.00    +0.293 HD
ENDBRANCH   4  20
TORSDOF 5
ENDMDL
MODEL 2
REMARK VINA RESULT:    -7.628      1.351      1.815
REMARK INTER + INTRA:          -9.447
REMARK INTER:                  -9.105
REMARK INTRA:                  -0.342
REMARK UNBOUND:                -0.258
REMARK SMILES O=C(O)c1cc(O)c(O)c(-c2cccc(Br)c2)c1
REMARK SMILES IDX 4 1 5 2 6 3 8 4 10 5 18 6 2 7 1 8 3 9 7 11 11 13 12 14 17 15
REMARK SMILES IDX 13 16 15 17 14 18 16 19 9 20
REMARK H PARENT 3 10 7 12 9 21
ROOT
ATOM      1  C   UNL     1      27.759  -0.700  53.305  1.00  0.00    +0.064 A 
ATOM      2  C   UNL     1      28.325   0.548  53.575  1.00  0.00    +0.065 A 
ATOM      3  C   UNL     1      27.491   1.644  53.731  1.00  0.00    +0.158 A 
ATOM      4  C   UNL     1      26.105   1.524  53.623  1.00  0.00    +0.165 A 
ATOM      5  C   UNL     1      25.511   0.280  53.360  1.00  0.00    +0.028 A 
ATOM      6  C   UNL     1      26.363  -0.830  53.198  1.00  0.00    +0.028 A 
ENDROOT
BRANCH   1   7
ATOM      7  C   UNL     1      28.669  -1.860  53.140  1.00  0.00    +0.335 C 
ATOM      8  O   UNL     1      29.877  -1.847  53.279  1.00  0.00    -0.246 OA
BRANCH   7   9
ATOM      9  O   UNL     1      28.017  -2.987  52.805  1.00  0.00    -0.478 OA
ATOM     10  H   UNL     1      27.202  -2.662  52.368  1.00  0.00    +0.297 HD
ENDBRANCH   7   9
ENDBRANCH   1   7
BRANCH   3  11
ATOM     11  O   UNL     1      28.047   2.866  53.990  1.00  0.00    -0.504 OA
ATOM     12  H   UNL     1      28.510   2.754  54.844  1.00  0.00    +0.293 HD
ENDBRANCH   3  11
BRANCH   5  13
ATOM     13  C   UNL     1      24.057   0.100  53.260  1.00  0.00    -0.013 A 
ATOM     14  C   UNL     1      23.348  -0.580  54.263  1.00  0.00    +0.009 A 
ATOM     15  C   UNL     1      23.346   0.606  52.161  1.00  0.00    +0.024 A 
ATOM     16  C   UNL     1      21.964  -0.746  54.176  1.00  0.00    +0.002 A 
ATOM     17  C   UNL     1      21.963   0.436  52.077  1.00  0.00    +0.018 A 
ATOM     18  C   UNL     1      21.270  -0.236  53.080  1.00  0.00    +0.016 A 
ATOM     19 Br   UNL     1      21.023   1.127  50.590  1.00  0.00    -0.051 Br
ENDBRANCH   5  13
BRANCH   4  20
ATOM     20  O   UNL     1      25.385   2.684  53.777  1.00  0.00    -0.504 OA
ATOM     21  H   UNL     1      25.397   3.166  52.931  1.00  0.00    +0.293 HD
ENDBRANCH   4  20
TORSDOF 5
ENDMDL
MODEL 3
REMARK VINA RESULT:    -7.442      0.952      3.052
REMARK INTER + INTRA:          -9.222
REMARK INTER:                  -9.001
REMARK INTRA:                  -0.221
REMARK UNBOUND:                -0.258
REMARK SMILES O=C(O)c1cc(O)c(O)c(-c2cccc(Br)c2)c1
REMARK SMILES IDX 4 1 5 2 6 3 8 4 10 5 18 6 2 7 1 8 3 9 7 11 11 13 12 14 17 15
REMARK SMILES IDX 13 16 15 17 14 18 16 19 9 20
REMARK H PARENT 3 10 7 12 9 21
ROOT
ATOM      1  C   UNL     1      28.576   1.156  53.830  1.00  0.00    +0.064 A 
ATOM      2  C   UNL     1      29.246  -0.066  53.730  1.00  0.00    +0.065 A 
ATOM      3  C   UNL     1      28.527  -1.200  53.390  1.00  0.00    +0.158 A 
ATOM      4  C   UNL     1      27.154  -1.144  53.145  1.00  0.00    +0.165 A 
ATOM      5  C   UNL     1      26.459   0.072  53.231  1.00  0.00    +0.028 A 
ATOM      6  C   UNL     1      27.193   1.221  53.581  1.00  0.00    +0.028 A 
ENDROOT
BRANCH   1   7
ATOM      7  C   UNL     1      29.363   2.358  54.197  1.00  0.00    +0.335 C 
ATOM      8  O   UNL     1      29.873   2.576  55.280  1.00  0.00    -0.246 OA
BRANCH   7   9
ATOM      9  O   UNL     1      29.474   3.236  53.185  1.00  0.00    -0.478 OA
ATOM     10  H   UNL     1      30.263   2.923  52.693  1.00  0.00    +0.297 HD
ENDBRANCH   7   9
ENDBRANCH   1   7
BRANCH   3  11
ATOM     11  O   UNL     1      29.183  -2.396  53.299  1.00  0.00    -0.504 OA
ATOM     12  H   UNL     1      28.533  -3.061  53.602  1.00  0.00    +0.293 HD
ENDBRANCH   3  11
BRANCH   5  13
ATOM     13  C   UNL     1      25.020   0.184  52.961  1.00  0.00    -0.013 A 
ATOM     14  C   UNL     1      24.544   1.041  51.956  1.00  0.00    +0.009 A 
ATOM     15  C   UNL     1      24.091  -0.564  53.701  1.00  0.00    +0.024 A 
ATOM     16  C   UNL     1      23.176   1.145  51.690  1.00  0.00    +0.002 A 
ATOM     17  C   UNL     1      22.726  -0.456  53.433  1.00  0.00    +0.018 A 
ATOM     18  C   UNL     1      22.265   0.394  52.431  1.00  0.00    +0.016 A 
ATOM     19 Br   UNL     1      21.491  -1.474  54.439  1.00  0.00    -0.051 Br
ENDBRANCH   5  13
BRANCH   4  20
ATOM     20  O   UNL     1      26.547  -2.337  52.837  1.00  0.00    -0.504 OA
ATOM     21  H   UNL     1      26.438  -2.847  53.659  1.00  0.00    +0.293 HD
ENDBRANCH   4  20
TORSDOF 5
ENDMDL
MODEL 4
REMARK VINA RESULT:    -7.207      3.509      5.808
REMARK INTER + INTRA:          -8.940
REMARK INTER:                  -8.738
REMARK INTRA:                  -0.202
REMARK UNBOUND:                -0.258
REMARK SMILES O=C(O)c1cc(O)c(O)c(-c2cccc(Br)c2)c1
REMARK SMILES IDX 4 1 5 2 6 3 8 4 10 5 18 6 2 7 1 8 3 9 7 11 11 13 12 14 17 15
REMARK SMILES IDX 13 16 15 17 14 18 16 19 9 20
REMARK H PARENT 3 10 7 12 9 21
ROOT
ATOM      1  C   UNL     1      22.802  -0.608  53.880  1.00  0.00    +0.064 A 
ATOM      2  C   UNL     1      22.072  -0.012  52.849  1.00  0.00    +0.065 A 
ATOM      3  C   UNL     1      22.722   0.837  51.968  1.00  0.00    +0.158 A 
ATOM      4  C   UNL     1      24.087   1.105  52.093  1.00  0.00    +0.165 A 
ATOM      5  C   UNL     1      24.844   0.514  53.115  1.00  0.00    +0.028 A 
ATOM      6  C   UNL     1      24.177  -0.344  54.010  1.00  0.00    +0.028 A 
ENDROOT
BRANCH   1   7
ATOM      7  C   UNL     1      22.086  -1.512  54.813  1.00  0.00    +0.335 C 
ATOM      8  O   UNL     1      20.923  -1.859  54.722  1.00  0.00    -0.246 OA
BRANCH   7   9
ATOM      9  O   UNL     1      22.864  -1.940  55.822  1.00  0.00    -0.478 OA
ATOM     10  H   UNL     1      22.694  -1.291  56.538  1.00  0.00    +0.297 HD
ENDBRANCH   7   9
ENDBRANCH   1   7
BRANCH   3  11
ATOM     11  O   UNL     1      22.005   1.423  50.963  1.00  0.00    -0.504 OA
ATOM     12  H   UNL     1      22.534   1.268  50.156  1.00  0.00    +0.293 HD
ENDBRANCH   3  11
BRANCH   5  13
ATOM     13  C   UNL     1      26.285   0.750  53.272  1.00  0.00    -0.013 A 
ATOM     14  C   UNL     1      26.786   2.054  53.420  1.00  0.00    +0.009 A 
ATOM     15  C   UNL     1      27.190  -0.322  53.280  1.00  0.00    +0.024 A 
ATOM     16  C   UNL     1      28.155   2.282  53.579  1.00  0.00    +0.002 A 
ATOM     17  C   UNL     1      28.557  -0.089  53.438  1.00  0.00    +0.018 A 
ATOM     18  C   UNL     1      29.043   1.207  53.588  1.00  0.00    +0.016 A 
ATOM     19 Br   UNL     1      29.760  -1.547  53.449  1.00  0.00    -0.051 Br
ENDBRANCH   5  13
BRANCH   4  20
ATOM     20  O   UNL     1      24.615   1.978  51.173  1.00  0.00    -0.504 OA
ATOM     21  H   UNL     1      24.000   2.040  50.421  1.00  0.00    +0.293 HD
ENDBRANCH   4  20
TORSDOF 5
ENDMDL
MODEL 5
REMARK VINA RESULT:    -6.889      2.305      3.962
REMARK INTER + INTRA:          -8.557
REMARK INTER:                  -8.848
REMARK INTRA:                   0.291
REMARK UNBOUND:                -0.258
REMARK SMILES O=C(O)c1cc(O)c(O)c(-c2cccc(Br)c2)c1
REMARK SMILES IDX 4 1 5 2 6 3 8 4 10 5 18 6 2 7 1 8 3 9 7 11 11 13 12 14 17 15
REMARK SMILES IDX 13 16 15 17 14 18 16 19 9 20
REMARK H PARENT 3 10 7 12 9 21
ROOT
ATOM      1  C   UNL     1      26.117   1.543  51.997  1.00  0.00    +0.064 A 
ATOM      2  C   UNL     1      27.145   0.976  52.754  1.00  0.00    +0.065 A 
ATOM      3  C   UNL     1      26.827   0.036  53.722  1.00  0.00    +0.158 A 
ATOM      4  C   UNL     1      25.506  -0.351  53.952  1.00  0.00    +0.165 A 
ATOM      5  C   UNL     1      24.456   0.197  53.201  1.00  0.00    +0.028 A 
ATOM      6  C   UNL     1      24.783   1.155  52.221  1.00  0.00    +0.028 A 
ENDROOT
BRANCH   1   7
ATOM      7  C   UNL     1      26.477   2.547  50.967  1.00  0.00    +0.335 C 
ATOM      8  O   UNL     1      25.901   2.729  49.911  1.00  0.00    -0.246 OA
BRANCH   7   9
ATOM      9  O   UNL     1      27.550   3.281  51.311  1.00  0.00    -0.478 OA
ATOM     10  H   UNL     1      27.810   3.718  50.472  1.00  0.00    +0.297 HD
ENDBRANCH   7   9
ENDBRANCH   1   7
BRANCH   3  11
ATOM     11  O   UNL     1      27.834  -0.513  54.465  1.00  0.00    -0.504 OA
ATOM     12  H   UNL     1      27.564  -0.372  55.394  1.00  0.00    +0.293 HD
ENDBRANCH   3  11
BRANCH   5  13
ATOM     13  C   UNL     1      23.054  -0.195  53.392  1.00  0.00    -0.013 A 
ATOM     14  C   UNL     1      22.675  -0.986  54.489  1.00  0.00    +0.009 A 
ATOM     15  C   UNL     1      22.065   0.214  52.485  1.00  0.00    +0.024 A 
ATOM     16  C   UNL     1      21.341  -1.355  54.680  1.00  0.00    +0.002 A 
ATOM     17  C   UNL     1      20.733  -0.158  52.680  1.00  0.00    +0.018 A 
ATOM     18  C   UNL     1      20.368  -0.939  53.773  1.00  0.00    +0.016 A 
ATOM     19 Br   UNL     1      19.415   0.405  51.448  1.00  0.00    -0.051 Br
ENDBRANCH   5  13
BRANCH   4  20
ATOM     20  O   UNL     1      25.314  -1.274  54.951  1.00  0.00    -0.504 OA
ATOM     21  H   UNL     1      25.341  -2.164  54.556  1.00  0.00    +0.293 HD
ENDBRANCH   4  20
TORSDOF 5
ENDMDL
MODEL 6
REMARK VINA RESULT:    -6.874      4.470      6.336
REMARK INTER + INTRA:          -8.538
REMARK INTER:                  -8.463
REMARK INTRA:                  -0.075
REMARK UNBOUND:                -0.258
REMARK SMILES O=C(O)c1cc(O)c(O)c(-c2cccc(Br)c2)c1
REMARK SMILES IDX 4 1 5 2 6 3 8 4 10 5 18 6 2 7 1 8 3 9 7 11 11 13 12 14 17 15
REMARK SMILES IDX 13 16 15 17 14 18 16 19 9 20
REMARK H PARENT 3 10 7 12 9 21
ROOT
ATOM      1  C   UNL     1      22.443  -0.717  53.971  1.00  0.00    +0.064 A 
ATOM      2  C   UNL     1      21.121  -1.026  54.300  1.00  0.00    +0.065 A 
ATOM      3  C   UNL     1      20.105  -0.624  53.447  1.00  0.00    +0.158 A 
ATOM      4  C   UNL     1      20.379   0.079  52.273  1.00  0.00    +0.165 A 
ATOM      5  C   UNL     1      21.698   0.395  51.916  1.00  0.00    +0.028 A 
ATOM      6  C   UNL     1      22.727  -0.012  52.788  1.00  0.00    +0.028 A 
ENDROOT
BRANCH   1   7
ATOM      7  C   UNL     1      23.515  -1.155  54.898  1.00  0.00    +0.335 C 
ATOM      8  O   UNL     1      24.698  -0.884  54.804  1.00  0.00    -0.246 OA
BRANCH   7   9
ATOM      9  O   UNL     1      23.053  -1.918  55.904  1.00  0.00    -0.478 OA
ATOM     10  H   UNL     1      23.839  -2.434  56.184  1.00  0.00    +0.297 HD
ENDBRANCH   7   9
ENDBRANCH   1   7
BRANCH   3  11
ATOM     11  O   UNL     1      18.812  -0.921  53.773  1.00  0.00    -0.504 OA
ATOM     12  H   UNL     1      18.680  -1.838  53.461  1.00  0.00    +0.293 HD
ENDBRANCH   3  11
BRANCH   5  13
ATOM     13  C   UNL     1      22.037   1.113  50.680  1.00  0.00    -0.013 A 
ATOM     14  C   UNL     1      21.431   0.766  49.461  1.00  0.00    +0.009 A 
ATOM     15  C   UNL     1      22.969   2.160  50.692  1.00  0.00    +0.024 A 
ATOM     16  C   UNL     1      21.743   1.452  48.285  1.00  0.00    +0.002 A 
ATOM     17  C   UNL     1      23.279   2.842  49.514  1.00  0.00    +0.018 A 
ATOM     18  C   UNL     1      22.670   2.493  48.312  1.00  0.00    +0.016 A 
ATOM     19 Br   UNL     1      24.536   4.253  49.552  1.00  0.00    -0.051 Br
ENDBRANCH   5  13
BRANCH   4  20
ATOM     20  O   UNL     1      19.289   0.442  51.519  1.00  0.00    -0.504 OA
ATOM     21  H   UNL     1      18.496   0.391  52.083  1.00  0.00    +0.293 HD
ENDBRANCH   4  20
TORSDOF 5
ENDMDL
MODEL 7
REMARK VINA RESULT:    -6.724      3.641      5.408
REMARK INTER + INTRA:          -8.357
REMARK INTER:                  -8.397
REMARK INTRA:                   0.040
REMARK UNBOUND:                -0.258
REMARK SMILES O=C(O)c1cc(O)c(O)c(-c2cccc(Br)c2)c1
REMARK SMILES IDX 4 1 5 2 6 3 8 4 10 5 18 6 2 7 1 8 3 9 7 11 11 13 12 14 17 15
REMARK SMILES IDX 13 16 15 17 14 18 16 19 9 20
REMARK H PARENT 3 10 7 12 9 21
ROOT
ATOM      1  C   UNL     1      22.869  -0.372  54.003  1.00  0.00    +0.064 A 
ATOM      2  C   UNL     1      24.120  -0.840  54.412  1.00  0.00    +0.065 A 
ATOM      3  C   UNL     1      25.248  -0.440  53.714  1.00  0.00    +0.158 A 
ATOM      4  C   UNL     1      25.157   0.417  52.616  1.00  0.00    +0.165 A 
ATOM      5  C   UNL     1      23.914   0.907  52.190  1.00  0.00    +0.028 A 
ATOM      6  C   UNL     1      22.770   0.495  52.900  1.00  0.00    +0.028 A 
ENDROOT
BRANCH   1   7
ATOM      7  C   UNL     1      21.674  -0.813  54.763  1.00  0.00    +0.335 C 
ATOM      8  O   UNL     1      21.431  -1.952  55.117  1.00  0.00    -0.246 OA
BRANCH   7   9
ATOM      9  O   UNL     1      20.834   0.198  55.044  1.00  0.00    -0.478 OA
ATOM     10  H   UNL     1      20.164  -0.214  55.630  1.00  0.00    +0.297 HD
ENDBRANCH   7   9
ENDBRANCH   1   7
BRANCH   3  11
ATOM     11  O   UNL     1      26.471  -0.904  54.112  1.00  0.00    -0.504 OA
ATOM     12  H   UNL     1      26.891  -0.145  54.562  1.00  0.00    +0.293 HD
ENDBRANCH   3  11
BRANCH   5  13
ATOM     13  C   UNL     1      23.770   1.828  51.055  1.00  0.00    -0.013 A 
ATOM     14  C   UNL     1      22.655   1.749  50.204  1.00  0.00    +0.009 A 
ATOM     15  C   UNL     1      24.743   2.805  50.797  1.00  0.00    +0.024 A 
ATOM     16  C   UNL     1      22.511   2.628  49.128  1.00  0.00    +0.002 A 
ATOM     17  C   UNL     1      24.595   3.681  49.720  1.00  0.00    +0.018 A 
ATOM     18  C   UNL     1      23.483   3.597  48.886  1.00  0.00    +0.016 A 
ATOM     19 Br   UNL     1      25.915   4.993  49.391  1.00  0.00    -0.051 Br
ENDBRANCH   5  13
BRANCH   4  20
ATOM     20  O   UNL     1      26.342   0.726  51.993  1.00  0.00    -0.504 OA
ATOM     21  H   UNL     1      26.515   1.676  52.117  1.00  0.00    +0.293 HD
ENDBRANCH   4  20
TORSDOF 5
ENDMDL
MODEL 8
REMARK VINA RESULT:    -6.700      3.673      5.394
REMARK INTER + INTRA:          -8.329
REMARK INTER:                  -7.915
REMARK INTRA:                  -0.414
REMARK UNBOUND:                -0.258
REMARK SMILES O=C(O)c1cc(O)c(O)c(-c2cccc(Br)c2)c1
REMARK SMILES IDX 4 1 5 2 6 3 8 4 10 5 18 6 2 7 1 8 3 9 7 11 11 13 12 14 17 15
REMARK SMILES IDX 13 16 15 17 14 18 16 19 9 20
REMARK H PARENT 3 10 7 12 9 21
ROOT
ATOM      1  C   UNL     1      23.897  -0.562  54.295  1.00  0.00    +0.064 A 
ATOM      2  C   UNL     1      22.784  -1.271  54.752  1.00  0.00    +0.065 A 
ATOM      3  C   UNL     1      21.532  -0.950  54.252  1.00  0.00    +0.158 A 
ATOM      4  C   UNL     1      21.365   0.062  53.306  1.00  0.00    +0.165 A 
ATOM      5  C   UNL     1      22.468   0.783  52.825  1.00  0.00    +0.028 A 
ATOM      6  C   UNL     1      23.737   0.457  53.339  1.00  0.00    +0.028 A 
ENDROOT
BRANCH   1   7
ATOM      7  C   UNL     1      25.228  -0.919  54.844  1.00  0.00    +0.335 C 
ATOM      8  O   UNL     1      26.283  -0.892  54.238  1.00  0.00    -0.246 OA
BRANCH   7   9
ATOM      9  O   UNL     1      25.174  -1.296  56.133  1.00  0.00    -0.478 OA
ATOM     10  H   UNL     1      26.090  -1.153  56.455  1.00  0.00    +0.297 HD
ENDBRANCH   7   9
ENDBRANCH   1   7
BRANCH   3  11
ATOM     11  O   UNL     1      20.442  -1.641  54.705  1.00  0.00    -0.504 OA
ATOM     12  H   UNL     1      20.730  -2.575  54.725  1.00  0.00    +0.293 HD
ENDBRANCH   3  11
BRANCH   5  13
ATOM     13  C   UNL     1      22.344   1.841  51.814  1.00  0.00    -0.013 A 
ATOM     14  C   UNL     1      22.172   3.182  52.197  1.00  0.00    +0.009 A 
ATOM     15  C   UNL     1      22.397   1.536  50.446  1.00  0.00    +0.024 A 
ATOM     16  C   UNL     1      22.062   4.193  51.239  1.00  0.00    +0.002 A 
ATOM     17  C   UNL     1      22.286   2.549  49.492  1.00  0.00    +0.018 A 
ATOM     18  C   UNL     1      22.120   3.875  49.883  1.00  0.00    +0.016 A 
ATOM     19 Br   UNL     1      22.364   2.117  47.654  1.00  0.00    -0.051 Br
ENDBRANCH   5  13
BRANCH   4  20
ATOM     20  O   UNL     1      20.074   0.302  52.901  1.00  0.00    -0.504 OA
ATOM     21  H   UNL     1      20.074   1.090  52.329  1.00  0.00    +0.293 HD
ENDBRANCH   4  20
TORSDOF 5
ENDMDL
MODEL 9
REMARK VINA RESULT:    -6.376      2.719      4.092
REMARK INTER + INTRA:          -7.938
REMARK INTER:                  -8.205
REMARK INTRA:                   0.268
REMARK UNBOUND:                -0.258
REMARK SMILES O=C(O)c1cc(O)c(O)c(-c2cccc(Br)c2)c1
REMARK SMILES IDX 4 1 5 2 6 3 8 4 10 5 18 6 2 7 1 8 3 9 7 11 11 13 12 14 17 15
REMARK SMILES IDX 13 16 15 17 14 18 16 19 9 20
REMARK H PARENT 3 10 7 12 9 21
ROOT
ATOM      1  C   UNL     1      26.337   1.035  53.667  1.00  0.00    +0.064 A 
ATOM      2  C   UNL     1      26.293   0.108  54.711  1.00  0.00    +0.065 A 
ATOM      3  C   UNL     1      25.132  -0.621  54.914  1.00  0.00    +0.158 A 
ATOM      4  C   UNL     1      24.013  -0.445  54.099  1.00  0.00    +0.165 A 
ATOM      5  C   UNL     1      24.034   0.474  53.039  1.00  0.00    +0.028 A 
ATOM      6  C   UNL     1      25.215   1.215  52.839  1.00  0.00    +0.028 A 
ENDROOT
BRANCH   1   7
ATOM      7  C   UNL     1      27.589   1.805  53.468  1.00  0.00    +0.335 C 
ATOM      8  O   UNL     1      28.515   1.491  52.744  1.00  0.00    -0.246 OA
BRANCH   7   9
ATOM      9  O   UNL     1      27.622   2.939  54.189  1.00  0.00    -0.478 OA
ATOM     10  H   UNL     1      26.705   3.282  54.124  1.00  0.00    +0.297 HD
ENDBRANCH   7   9
ENDBRANCH   1   7
BRANCH   3  11
ATOM     11  O   UNL     1      25.089  -1.523  55.940  1.00  0.00    -0.504 OA
ATOM     12  H   UNL     1      25.225  -0.990  56.747  1.00  0.00    +0.293 HD
ENDBRANCH   3  11
BRANCH   5  13
ATOM     13  C   UNL     1      22.889   0.677  52.142  1.00  0.00    -0.013 A 
ATOM     14  C   UNL     1      21.609   0.222  52.499  1.00  0.00    +0.009 A 
ATOM     15  C   UNL     1      23.050   1.331  50.912  1.00  0.00    +0.024 A 
ATOM     16  C   UNL     1      20.515   0.420  51.653  1.00  0.00    +0.002 A 
ATOM     17  C   UNL     1      21.954   1.527  50.069  1.00  0.00    +0.018 A 
ATOM     18  C   UNL     1      20.689   1.075  50.435  1.00  0.00    +0.016 A 
ATOM     19 Br   UNL     1      22.190   2.413  48.416  1.00  0.00    -0.051 Br
ENDBRANCH   5  13
BRANCH   4  20
ATOM     20  O   UNL     1      22.914  -1.209  54.411  1.00  0.00    -0.504 OA
ATOM     21  H   UNL     1      23.064  -2.112  54.079  1.00  0.00    +0.293 HD
ENDBRANCH   4  20
TORSDOF 5
ENDMDL
