MODEL 1
REMARK VINA RESULT:    -7.607      0.000      0.000
REMARK INTER + INTRA:         -10.963
REMARK INTER:                 -10.275
REMARK INTRA:                  -0.688
REMARK UNBOUND:                -0.688
REMARK SMILES N#CC(C#N)=C(C#N)C(N)=Cc1ccc2c(cnn2CCC(=O)O)c1
REMARK SMILES IDX 20 1 19 2 12 3 13 4 25 5 14 6 16 7 15 8 17 9 18 10 11 11
REMARK SMILES IDX 9 12 6 13 1 14 2 15 3 16 4 17 5 18 7 19 8 20 10 21 21 24
REMARK SMILES IDX 22 25 23 26 24 27
REMARK H PARENT 10 22 10 23 24 28
ROOT
ATOM      1  C   UNL     1      27.342   1.019  54.214  1.00  0.00    +0.156 C 
ENDROOT
BRANCH   1   2
ATOM      2  N   UNL     1      26.076   0.312  54.271  1.00  0.00    -0.264 N 
ATOM      3  C   UNL     1      22.538   0.314  52.156  1.00  0.00    -0.023 A 
ATOM      4  C   UNL     1      23.509   1.219  51.713  1.00  0.00    +0.010 A 
ATOM      5  C   UNL     1      22.796  -0.517  53.257  1.00  0.00    +0.020 A 
ATOM      6  C   UNL     1      24.756   1.316  52.343  1.00  0.00    +0.029 A 
ATOM      7  C   UNL     1      24.043  -0.433  53.900  1.00  0.00    +0.020 A 
ATOM      8  C   UNL     1      24.994   0.476  53.439  1.00  0.00    +0.068 A 
ATOM      9  C   UNL     1      24.665  -1.077  54.992  1.00  0.00    +0.143 A 
ATOM     10  N   UNL     1      25.904  -0.636  55.214  1.00  0.00    -0.180 NA
BRANCH   3  11
ATOM     11  C   UNL     1      21.245   0.253  51.462  1.00  0.00    +0.035 C 
ATOM     12  C   UNL     1      20.174   1.016  51.762  1.00  0.00    +0.052 C 
BRANCH  12  13
ATOM     13  C   UNL     1      18.942   0.836  50.988  1.00  0.00    +0.103 C 
ATOM     14  N   UNL     1      18.257  -1.543  53.425  1.00  0.00    -0.192 NA
ATOM     15  C   UNL     1      18.128  -0.881  52.481  1.00  0.00    +0.112 C 
ATOM     16  C   UNL     1      17.989  -0.062  51.323  1.00  0.00    +0.149 C 
ATOM     17  C   UNL     1      16.806  -0.226  50.548  1.00  0.00    +0.112 C 
ATOM     18  N   UNL     1      15.841  -0.364  49.921  1.00  0.00    -0.192 NA
ATOM     19  C   UNL     1      18.808   1.662  49.827  1.00  0.00    +0.103 C 
ATOM     20  N   UNL     1      18.680   2.310  48.875  1.00  0.00    -0.192 NA
ENDBRANCH  12  13
BRANCH  12  21
ATOM     21  N   UNL     1      20.147   1.957  52.773  1.00  0.00    -0.398 N 
ATOM     22  H   UNL     1      20.906   2.633  52.776  1.00  0.00    +0.156 HD
ATOM     23  H   UNL     1      19.239   2.412  52.885  1.00  0.00    +0.156 HD
ENDBRANCH  12  21
ENDBRANCH   3  11
ENDBRANCH   1   2
BRANCH   1  24
ATOM     24  C   UNL     1      28.442   0.246  54.923  1.00  0.00    +0.146 C 
BRANCH  24  25
ATOM     25  C   UNL     1      29.250  -0.522  53.925  1.00  0.00    +0.305 C 
ATOM     26  O   UNL     1      29.057  -1.664  53.546  1.00  0.00    -0.252 OA
BRANCH  25  27
ATOM     27  O   UNL     1      30.294   0.190  53.462  1.00  0.00    -0.481 OA
ATOM     28  H   UNL     1      31.069  -0.400  53.578  1.00  0.00    +0.296 HD
ENDBRANCH  25  27
ENDBRANCH  24  25
ENDBRANCH   1  24
TORSDOF 7
ENDMDL
MODEL 2
REMARK VINA RESULT:    -7.561      1.733      3.026
REMARK INTER + INTRA:         -10.901
REMARK INTER:                 -10.167
REMARK INTRA:                  -0.733
REMARK UNBOUND:                -0.688
REMARK SMILES N#CC(C#N)=C(C#N)C(N)=Cc1ccc2c(cnn2CCC(=O)O)c1
REMARK SMILES IDX 20 1 19 2 12 3 13 4 25 5 14 6 16 7 15 8 17 9 18 10 11 11
REMARK SMILES IDX 9 12 6 13 1 14 2 15 3 16 4 17 5 18 7 19 8 20 10 21 21 24
REMARK SMILES IDX 22 25 23 26 24 27
REMARK H PARENT 10 22 10 23 24 28
ROOT
ATOM      1  C   UNL     1      27.953  -0.411  54.188  1.00  0.00    +0.156 C 
ENDROOT
BRANCH   1   2
ATOM      2  N   UNL     1      26.974   0.464  53.569  1.00  0.00    -0.264 N 
ATOM      3  C   UNL     1      22.868   0.621  53.242  1.00  0.00    -0.023 A 
ATOM      4  C   UNL     1      23.378  -0.467  53.958  1.00  0.00    +0.010 A 
ATOM      5  C   UNL     1      23.739   1.570  52.683  1.00  0.00    +0.020 A 
ATOM      6  C   UNL     1      24.755  -0.636  54.145  1.00  0.00    +0.029 A 
ATOM      7  C   UNL     1      25.125   1.416  52.863  1.00  0.00    +0.020 A 
ATOM      8  C   UNL     1      25.606   0.324  53.583  1.00  0.00    +0.068 A 
ATOM      9  C   UNL     1      26.280   2.130  52.481  1.00  0.00    +0.143 A 
ATOM     10  N   UNL     1      27.406   1.563  52.918  1.00  0.00    -0.180 NA
BRANCH   3  11
ATOM     11  C   UNL     1      21.415   0.751  53.071  1.00  0.00    +0.035 C 
ATOM     12  C   UNL     1      20.754   0.543  51.913  1.00  0.00    +0.052 C 
BRANCH  12  13
ATOM     13  C   UNL     1      19.299   0.723  51.892  1.00  0.00    +0.103 C 
ATOM     14  N   UNL     1      20.125   3.860  50.651  1.00  0.00    -0.192 NA
ATOM     15  C   UNL     1      19.481   2.969  51.021  1.00  0.00    +0.112 C 
ATOM     16  C   UNL     1      18.706   1.866  51.481  1.00  0.00    +0.149 C 
ATOM     17  C   UNL     1      17.290   2.018  51.480  1.00  0.00    +0.112 C 
ATOM     18  N   UNL     1      16.138   2.149  51.478  1.00  0.00    -0.192 NA
ATOM     19  C   UNL     1      18.527  -0.389  52.355  1.00  0.00    +0.103 C 
ATOM     20  N   UNL     1      17.878  -1.271  52.737  1.00  0.00    -0.192 NA
ENDBRANCH  12  13
BRANCH  12  21
ATOM     21  N   UNL     1      21.359   0.188  50.725  1.00  0.00    -0.398 N 
ATOM     22  H   UNL     1      21.114  -0.726  50.354  1.00  0.00    +0.156 HD
ATOM     23  H   UNL     1      21.307   0.910  50.005  1.00  0.00    +0.156 HD
ENDBRANCH  12  21
ENDBRANCH   3  11
ENDBRANCH   1   2
BRANCH   1  24
ATOM     24  C   UNL     1      28.741  -1.186  53.146  1.00  0.00    +0.146 C 
BRANCH  24  25
ATOM     25  C   UNL     1      28.059  -2.485  52.853  1.00  0.00    +0.305 C 
ATOM     26  O   UNL     1      27.065  -2.656  52.171  1.00  0.00    -0.252 OA
BRANCH  25  27
ATOM     27  O   UNL     1      28.661  -3.523  53.465  1.00  0.00    -0.481 OA
ATOM     28  H   UNL     1      29.211  -3.939  52.768  1.00  0.00    +0.296 HD
ENDBRANCH  25  27
ENDBRANCH  24  25
ENDBRANCH   1  24
TORSDOF 7
ENDMDL
MODEL 3
REMARK VINA RESULT:    -7.391      2.852      4.009
REMARK INTER + INTRA:         -10.671
REMARK INTER:                  -9.894
REMARK INTRA:                  -0.777
REMARK UNBOUND:                -0.688
REMARK SMILES N#CC(C#N)=C(C#N)C(N)=Cc1ccc2c(cnn2CCC(=O)O)c1
REMARK SMILES IDX 20 1 19 2 12 3 13 4 25 5 14 6 16 7 15 8 17 9 18 10 11 11
REMARK SMILES IDX 9 12 6 13 1 14 2 15 3 16 4 17 5 18 7 19 8 20 10 21 21 24
REMARK SMILES IDX 22 25 23 26 24 27
REMARK H PARENT 10 22 10 23 24 28
ROOT
ATOM      1  C   UNL     1      28.014  -0.427  53.498  1.00  0.00    +0.156 C 
ENDROOT
BRANCH   1   2
ATOM      2  N   UNL     1      26.574  -0.324  53.650  1.00  0.00    -0.264 N 
ATOM      3  C   UNL     1      23.503   1.739  51.833  1.00  0.00    -0.023 A 
ATOM      4  C   UNL     1      24.783   1.985  51.324  1.00  0.00    +0.010 A 
ATOM      5  C   UNL     1      23.326   0.844  52.899  1.00  0.00    +0.020 A 
ATOM      6  C   UNL     1      25.912   1.347  51.850  1.00  0.00    +0.029 A 
ATOM      7  C   UNL     1      24.450   0.192  53.438  1.00  0.00    +0.020 A 
ATOM      8  C   UNL     1      25.713   0.454  52.911  1.00  0.00    +0.068 A 
ATOM      9  C   UNL     1      24.678  -0.747  54.466  1.00  0.00    +0.143 A 
ATOM     10  N   UNL     1      25.966  -1.074  54.591  1.00  0.00    -0.180 NA
BRANCH   3  11
ATOM     11  C   UNL     1      22.352   2.438  51.248  1.00  0.00    +0.035 C 
ATOM     12  C   UNL     1      21.949   3.679  51.590  1.00  0.00    +0.052 C 
BRANCH  12  13
ATOM     13  C   UNL     1      20.770   4.245  50.926  1.00  0.00    +0.103 C 
ATOM     14  N   UNL     1      23.151   5.674  48.839  1.00  0.00    -0.192 NA
ATOM     15  C   UNL     1      22.115   5.403  49.287  1.00  0.00    +0.112 C 
ATOM     16  C   UNL     1      20.853   5.060  49.852  1.00  0.00    +0.149 C 
ATOM     17  C   UNL     1      19.692   5.606  49.232  1.00  0.00    +0.112 C 
ATOM     18  N   UNL     1      18.751   6.053  48.724  1.00  0.00    -0.192 NA
ATOM     19  C   UNL     1      19.505   3.897  51.499  1.00  0.00    +0.103 C 
ATOM     20  N   UNL     1      18.468   3.641  51.950  1.00  0.00    -0.192 NA
ENDBRANCH  12  13
BRANCH  12  21
ATOM     21  N   UNL     1      22.563   4.460  52.549  1.00  0.00    -0.398 N 
ATOM     22  H   UNL     1      23.262   3.998  53.123  1.00  0.00    +0.156 HD
ATOM     23  H   UNL     1      22.903   5.355  52.193  1.00  0.00    +0.156 HD
ENDBRANCH  12  21
ENDBRANCH   3  11
ENDBRANCH   1   2
BRANCH   1  24
ATOM     24  C   UNL     1      28.743   0.216  54.666  1.00  0.00    +0.146 C 
BRANCH  24  25
ATOM     25  C   UNL     1      29.188   1.595  54.292  1.00  0.00    +0.305 C 
ATOM     26  O   UNL     1      29.536   2.485  55.048  1.00  0.00    -0.252 OA
BRANCH  25  27
ATOM     27  O   UNL     1      29.147   1.798  52.962  1.00  0.00    -0.481 OA
ATOM     28  H   UNL     1      28.351   2.352  52.818  1.00  0.00    +0.296 HD
ENDBRANCH  25  27
ENDBRANCH  24  25
ENDBRANCH   1  24
TORSDOF 7
ENDMDL
MODEL 4
REMARK VINA RESULT:    -7.363      3.001      4.026
REMARK INTER + INTRA:         -10.634
REMARK INTER:                  -9.821
REMARK INTRA:                  -0.812
REMARK UNBOUND:                -0.688
REMARK SMILES N#CC(C#N)=C(C#N)C(N)=Cc1ccc2c(cnn2CCC(=O)O)c1
REMARK SMILES IDX 20 1 19 2 12 3 13 4 25 5 14 6 16 7 15 8 17 9 18 10 11 11
REMARK SMILES IDX 9 12 6 13 1 14 2 15 3 16 4 17 5 18 7 19 8 20 10 21 21 24
REMARK SMILES IDX 22 25 23 26 24 27
REMARK H PARENT 10 22 10 23 24 28
ROOT
ATOM      1  C   UNL     1      27.991  -0.528  53.740  1.00  0.00    +0.156 C 
ENDROOT
BRANCH   1   2
ATOM      2  N   UNL     1      26.570  -0.262  53.619  1.00  0.00    -0.264 N 
ATOM      3  C   UNL     1      24.172   2.349  51.514  1.00  0.00    -0.023 A 
ATOM      4  C   UNL     1      25.549   2.484  51.301  1.00  0.00    +0.010 A 
ATOM      5  C   UNL     1      23.687   1.376  52.402  1.00  0.00    +0.020 A 
ATOM      6  C   UNL     1      26.472   1.658  51.953  1.00  0.00    +0.029 A 
ATOM      7  C   UNL     1      24.600   0.536  53.063  1.00  0.00    +0.020 A 
ATOM      8  C   UNL     1      25.966   0.691  52.831  1.00  0.00    +0.068 A 
ATOM      9  C   UNL     1      24.512  -0.527  53.987  1.00  0.00    +0.143 A 
ATOM     10  N   UNL     1      25.705  -1.023  54.319  1.00  0.00    -0.180 NA
BRANCH   3  11
ATOM     11  C   UNL     1      23.246   3.243  50.809  1.00  0.00    +0.035 C 
ATOM     12  C   UNL     1      22.867   4.462  51.248  1.00  0.00    +0.052 C 
BRANCH  12  13
ATOM     13  C   UNL     1      21.923   5.240  50.440  1.00  0.00    +0.103 C 
ATOM     14  N   UNL     1      19.556   3.376  52.170  1.00  0.00    -0.192 NA
ATOM     15  C   UNL     1      20.009   4.145  51.427  1.00  0.00    +0.112 C 
ATOM     16  C   UNL     1      20.583   5.081  50.520  1.00  0.00    +0.149 C 
ATOM     17  C   UNL     1      19.688   5.842  49.715  1.00  0.00    +0.112 C 
ATOM     18  N   UNL     1      18.954   6.458  49.063  1.00  0.00    -0.192 NA
ATOM     19  C   UNL     1      22.507   6.179  49.531  1.00  0.00    +0.103 C 
ATOM     20  N   UNL     1      22.954   6.938  48.778  1.00  0.00    -0.192 NA
ENDBRANCH  12  13
BRANCH  12  21
ATOM     21  N   UNL     1      23.296   5.030  52.431  1.00  0.00    -0.398 N 
ATOM     22  H   UNL     1      22.568   5.320  53.078  1.00  0.00    +0.156 HD
ATOM     23  H   UNL     1      24.026   4.494  52.904  1.00  0.00    +0.156 HD
ENDBRANCH  12  21
ENDBRANCH   3  11
ENDBRANCH   1   2
BRANCH   1  24
ATOM     24  C   UNL     1      28.597   0.217  54.917  1.00  0.00    +0.146 C 
BRANCH  24  25
ATOM     25  C   UNL     1      29.312   1.440  54.434  1.00  0.00    +0.305 C 
ATOM     26  O   UNL     1      29.506   2.471  55.053  1.00  0.00    -0.252 OA
BRANCH  25  27
ATOM     27  O   UNL     1      29.735   1.310  53.162  1.00  0.00    -0.481 OA
ATOM     28  H   UNL     1      30.109   0.405  53.115  1.00  0.00    +0.296 HD
ENDBRANCH  25  27
ENDBRANCH  24  25
ENDBRANCH   1  24
TORSDOF 7
ENDMDL
MODEL 5
REMARK VINA RESULT:    -7.358      5.061      7.167
REMARK INTER + INTRA:         -10.628
REMARK INTER:                  -9.982
REMARK INTRA:                  -0.645
REMARK UNBOUND:                -0.688
REMARK SMILES N#CC(C#N)=C(C#N)C(N)=Cc1ccc2c(cnn2CCC(=O)O)c1
REMARK SMILES IDX 20 1 19 2 12 3 13 4 25 5 14 6 16 7 15 8 17 9 18 10 11 11
REMARK SMILES IDX 9 12 6 13 1 14 2 15 3 16 4 17 5 18 7 19 8 20 10 21 21 24
REMARK SMILES IDX 22 25 23 26 24 27
REMARK H PARENT 10 22 10 23 24 28
ROOT
ATOM      1  C   UNL     1      26.324  -0.685  53.616  1.00  0.00    +0.156 C 
ENDROOT
BRANCH   1   2
ATOM      2  N   UNL     1      25.314   0.133  52.969  1.00  0.00    -0.264 N 
ATOM      3  C   UNL     1      25.246   3.209  50.226  1.00  0.00    -0.023 A 
ATOM      4  C   UNL     1      26.515   2.728  50.565  1.00  0.00    +0.010 A 
ATOM      5  C   UNL     1      24.099   2.652  50.812  1.00  0.00    +0.020 A 
ATOM      6  C   UNL     1      26.677   1.683  51.483  1.00  0.00    +0.029 A 
ATOM      7  C   UNL     1      24.244   1.601  51.735  1.00  0.00    +0.020 A 
ATOM      8  C   UNL     1      25.519   1.139  52.054  1.00  0.00    +0.068 A 
ATOM      9  C   UNL     1      23.371   0.803  52.505  1.00  0.00    +0.143 A 
ATOM     10  N   UNL     1      24.016  -0.099  53.247  1.00  0.00    -0.180 NA
BRANCH   3  11
ATOM     11  C   UNL     1      25.131   4.309  49.260  1.00  0.00    +0.035 C 
ATOM     12  C   UNL     1      25.156   5.620  49.579  1.00  0.00    +0.052 C 
BRANCH  12  13
ATOM     13  C   UNL     1      25.017   6.609  48.505  1.00  0.00    +0.103 C 
ATOM     14  N   UNL     1      28.487   6.452  48.482  1.00  0.00    -0.192 NA
ATOM     15  C   UNL     1      27.409   6.772  48.199  1.00  0.00    +0.112 C 
ATOM     16  C   UNL     1      26.077   7.153  47.866  1.00  0.00    +0.149 C 
ATOM     17  C   UNL     1      25.914   8.121  46.834  1.00  0.00    +0.112 C 
ATOM     18  N   UNL     1      25.789   8.908  45.993  1.00  0.00    -0.192 NA
ATOM     19  C   UNL     1      23.677   6.987  48.176  1.00  0.00    +0.103 C 
ATOM     20  N   UNL     1      22.602   7.321  47.899  1.00  0.00    -0.192 NA
ENDBRANCH  12  13
BRANCH  12  21
ATOM     21  N   UNL     1      25.287   6.105  50.865  1.00  0.00    -0.398 N 
ATOM     22  H   UNL     1      25.890   6.916  50.978  1.00  0.00    +0.156 HD
ATOM     23  H   UNL     1      24.396   6.230  51.349  1.00  0.00    +0.156 HD
ENDBRANCH  12  21
ENDBRANCH   3  11
ENDBRANCH   1   2
BRANCH   1  24
ATOM     24  C   UNL     1      26.878  -1.734  52.667  1.00  0.00    +0.146 C 
BRANCH  24  25
ATOM     25  C   UNL     1      28.234  -2.171  53.126  1.00  0.00    +0.305 C 
ATOM     26  O   UNL     1      29.106  -1.472  53.613  1.00  0.00    -0.252 OA
BRANCH  25  27
ATOM     27  O   UNL     1      28.439  -3.486  52.923  1.00  0.00    -0.481 OA
ATOM     28  H   UNL     1      27.606  -3.809  52.521  1.00  0.00    +0.296 HD
ENDBRANCH  25  27
ENDBRANCH  24  25
ENDBRANCH   1  24
TORSDOF 7
ENDMDL
MODEL 6
REMARK VINA RESULT:    -7.322      5.351      7.424
REMARK INTER + INTRA:         -10.578
REMARK INTER:                  -9.996
REMARK INTRA:                  -0.582
REMARK UNBOUND:                -0.688
REMARK SMILES N#CC(C#N)=C(C#N)C(N)=Cc1ccc2c(cnn2CCC(=O)O)c1
REMARK SMILES IDX 20 1 19 2 12 3 13 4 25 5 14 6 16 7 15 8 17 9 18 10 11 11
REMARK SMILES IDX 9 12 6 13 1 14 2 15 3 16 4 17 5 18 7 19 8 20 10 21 21 24
REMARK SMILES IDX 22 25 23 26 24 27
REMARK H PARENT 10 22 10 23 24 28
ROOT
ATOM      1  C   UNL     1      26.084   7.854  48.475  1.00  0.00    +0.156 C 
ENDROOT
BRANCH   1   2
ATOM      2  N   UNL     1      26.504   6.491  48.739  1.00  0.00    -0.264 N 
ATOM      3  C   UNL     1      25.005   3.221  50.752  1.00  0.00    -0.023 A 
ATOM      4  C   UNL     1      24.210   4.372  50.787  1.00  0.00    +0.010 A 
ATOM      5  C   UNL     1      26.231   3.230  50.068  1.00  0.00    +0.020 A 
ATOM      6  C   UNL     1      24.603   5.550  50.141  1.00  0.00    +0.029 A 
ATOM      7  C   UNL     1      26.639   4.404  49.412  1.00  0.00    +0.020 A 
ATOM      8  C   UNL     1      25.827   5.536  49.460  1.00  0.00    +0.068 A 
ATOM      9  C   UNL     1      27.754   4.796  48.640  1.00  0.00    +0.143 A 
ATOM     10  N   UNL     1      27.671   6.059  48.218  1.00  0.00    -0.180 NA
BRANCH   3  11
ATOM     11  C   UNL     1      24.549   2.012  51.450  1.00  0.00    +0.035 C 
ATOM     12  C   UNL     1      24.487   1.874  52.791  1.00  0.00    +0.052 C 
BRANCH  12  13
ATOM     13  C   UNL     1      24.021   0.599  53.346  1.00  0.00    +0.103 C 
ATOM     14  N   UNL     1      20.887   2.017  52.864  1.00  0.00    -0.192 NA
ATOM     15  C   UNL     1      21.700   1.245  53.164  1.00  0.00    +0.112 C 
ATOM     16  C   UNL     1      22.713   0.312  53.528  1.00  0.00    +0.149 C 
ATOM     17  C   UNL     1      22.287  -0.930  54.080  1.00  0.00    +0.112 C 
ATOM     18  N   UNL     1      21.934  -1.938  54.529  1.00  0.00    -0.192 NA
ATOM     19  C   UNL     1      25.044  -0.334  53.710  1.00  0.00    +0.103 C 
ATOM     20  N   UNL     1      25.852  -1.102  54.024  1.00  0.00    -0.192 NA
ENDBRANCH  12  13
BRANCH  12  21
ATOM     21  N   UNL     1      24.855   2.853  53.692  1.00  0.00    -0.398 N 
ATOM     22  H   UNL     1      24.966   2.554  54.657  1.00  0.00    +0.156 HD
ATOM     23  H   UNL     1      25.646   3.420  53.382  1.00  0.00    +0.156 HD
ENDBRANCH  12  21
ENDBRANCH   3  11
ENDBRANCH   1   2
BRANCH   1  24
ATOM     24  C   UNL     1      26.104   8.695  49.740  1.00  0.00    +0.146 C 
BRANCH  24  25
ATOM     25  C   UNL     1      27.472   9.262  49.954  1.00  0.00    +0.305 C 
ATOM     26  O   UNL     1      28.339   9.427  49.113  1.00  0.00    -0.252 OA
BRANCH  25  27
ATOM     27  O   UNL     1      27.695   9.577  51.244  1.00  0.00    -0.481 OA
ATOM     28  H   UNL     1      26.874  10.026  51.536  1.00  0.00    +0.296 HD
ENDBRANCH  25  27
ENDBRANCH  24  25
ENDBRANCH   1  24
TORSDOF 7
ENDMDL
MODEL 7
REMARK VINA RESULT:    -7.243      6.002      8.848
REMARK INTER + INTRA:         -10.472
REMARK INTER:                 -10.115
REMARK INTRA:                  -0.357
REMARK UNBOUND:                -0.688
REMARK SMILES N#CC(C#N)=C(C#N)C(N)=Cc1ccc2c(cnn2CCC(=O)O)c1
REMARK SMILES IDX 20 1 19 2 12 3 13 4 25 5 14 6 16 7 15 8 17 9 18 10 11 11
REMARK SMILES IDX 9 12 6 13 1 14 2 15 3 16 4 17 5 18 7 19 8 20 10 21 21 24
REMARK SMILES IDX 22 25 23 26 24 27
REMARK H PARENT 10 22 10 23 24 28
ROOT
ATOM      1  C   UNL     1      23.352   0.111  53.324  1.00  0.00    +0.156 C 
ENDROOT
BRANCH   1   2
ATOM      2  N   UNL     1      23.278   0.996  52.177  1.00  0.00    -0.264 N 
ATOM      3  C   UNL     1      25.909   3.267  49.961  1.00  0.00    -0.023 A 
ATOM      4  C   UNL     1      26.471   2.558  51.029  1.00  0.00    +0.010 A 
ATOM      5  C   UNL     1      24.532   3.183  49.704  1.00  0.00    +0.020 A 
ATOM      6  C   UNL     1      25.686   1.747  51.858  1.00  0.00    +0.029 A 
ATOM      7  C   UNL     1      23.730   2.372  50.526  1.00  0.00    +0.020 A 
ATOM      8  C   UNL     1      24.315   1.675  51.581  1.00  0.00    +0.068 A 
ATOM      9  C   UNL     1      22.362   2.031  50.586  1.00  0.00    +0.143 A 
ATOM     10  N   UNL     1      22.084   1.185  51.580  1.00  0.00    -0.180 NA
BRANCH   3  11
ATOM     11  C   UNL     1      26.775   4.107  49.123  1.00  0.00    +0.035 C 
ATOM     12  C   UNL     1      26.864   5.450  49.212  1.00  0.00    +0.052 C 
BRANCH  12  13
ATOM     13  C   UNL     1      27.766   6.158  48.298  1.00  0.00    +0.103 C 
ATOM     14  N   UNL     1      24.918   8.020  47.601  1.00  0.00    -0.192 NA
ATOM     15  C   UNL     1      26.017   7.652  47.558  1.00  0.00    +0.112 C 
ATOM     16  C   UNL     1      27.362   7.184  47.517  1.00  0.00    +0.149 C 
ATOM     17  C   UNL     1      28.256   7.848  46.629  1.00  0.00    +0.112 C 
ATOM     18  N   UNL     1      28.979   8.392  45.904  1.00  0.00    -0.192 NA
ATOM     19  C   UNL     1      29.115   5.683  48.262  1.00  0.00    +0.103 C 
ATOM     20  N   UNL     1      30.212   5.311  48.205  1.00  0.00    -0.192 NA
ENDBRANCH  12  13
BRANCH  12  21
ATOM     21  N   UNL     1      26.142   6.221  50.102  1.00  0.00    -0.398 N 
ATOM     22  H   UNL     1      25.545   5.715  50.750  1.00  0.00    +0.156 HD
ATOM     23  H   UNL     1      26.704   6.926  50.583  1.00  0.00    +0.156 HD
ENDBRANCH  12  21
ENDBRANCH   3  11
ENDBRANCH   1   2
BRANCH   1  24
ATOM     24  C   UNL     1      22.392  -1.059  53.186  1.00  0.00    +0.146 C 
BRANCH  24  25
ATOM     25  C   UNL     1      21.806  -1.398  54.520  1.00  0.00    +0.305 C 
ATOM     26  O   UNL     1      22.387  -1.875  55.479  1.00  0.00    -0.252 OA
BRANCH  25  27
ATOM     27  O   UNL     1      20.486  -1.139  54.575  1.00  0.00    -0.481 OA
ATOM     28  H   UNL     1      20.127  -1.804  55.200  1.00  0.00    +0.296 HD
ENDBRANCH  25  27
ENDBRANCH  24  25
ENDBRANCH   1  24
TORSDOF 7
ENDMDL
MODEL 8
REMARK VINA RESULT:    -7.229      5.576      7.361
REMARK INTER + INTRA:         -10.452
REMARK INTER:                  -9.654
REMARK INTRA:                  -0.798
REMARK UNBOUND:                -0.688
REMARK SMILES N#CC(C#N)=C(C#N)C(N)=Cc1ccc2c(cnn2CCC(=O)O)c1
REMARK SMILES IDX 20 1 19 2 12 3 13 4 25 5 14 6 16 7 15 8 17 9 18 10 11 11
REMARK SMILES IDX 9 12 6 13 1 14 2 15 3 16 4 17 5 18 7 19 8 20 10 21 21 24
REMARK SMILES IDX 22 25 23 26 24 27
REMARK H PARENT 10 22 10 23 24 28
ROOT
ATOM      1  C   UNL     1      26.780   8.057  48.003  1.00  0.00    +0.156 C 
ENDROOT
BRANCH   1   2
ATOM      2  N   UNL     1      26.905   6.667  48.402  1.00  0.00    -0.264 N 
ATOM      3  C   UNL     1      24.515   3.836  50.209  1.00  0.00    -0.023 A 
ATOM      4  C   UNL     1      23.935   5.097  50.036  1.00  0.00    +0.010 A 
ATOM      5  C   UNL     1      25.832   3.599  49.784  1.00  0.00    +0.020 A 
ATOM      6  C   UNL     1      24.639   6.147  49.432  1.00  0.00    +0.029 A 
ATOM      7  C   UNL     1      26.552   4.642  49.175  1.00  0.00    +0.020 A 
ATOM      8  C   UNL     1      25.950   5.888  49.012  1.00  0.00    +0.068 A 
ATOM      9  C   UNL     1      27.843   4.794  48.626  1.00  0.00    +0.143 A 
ATOM     10  N   UNL     1      28.058   6.019  48.144  1.00  0.00    -0.180 NA
BRANCH   3  11
ATOM     11  C   UNL     1      23.735   2.769  50.851  1.00  0.00    +0.035 C 
ATOM     12  C   UNL     1      23.673   2.555  52.181  1.00  0.00    +0.052 C 
BRANCH  12  13
ATOM     13  C   UNL     1      22.860   1.441  52.678  1.00  0.00    +0.103 C 
ATOM     14  N   UNL     1      25.950  -0.103  53.039  1.00  0.00    -0.192 NA
ATOM     15  C   UNL     1      24.801   0.054  53.062  1.00  0.00    +0.112 C 
ATOM     16  C   UNL     1      23.392   0.266  53.081  1.00  0.00    +0.149 C 
ATOM     17  C   UNL     1      22.578  -0.805  53.549  1.00  0.00    +0.112 C 
ATOM     18  N   UNL     1      21.922  -1.681  53.930  1.00  0.00    -0.192 NA
ATOM     19  C   UNL     1      21.446   1.660  52.694  1.00  0.00    +0.103 C 
ATOM     20  N   UNL     1      20.296   1.807  52.707  1.00  0.00    -0.192 NA
ENDBRANCH  12  13
BRANCH  12  21
ATOM     21  N   UNL     1      24.345   3.309  53.123  1.00  0.00    -0.398 N 
ATOM     22  H   UNL     1      24.237   4.317  53.050  1.00  0.00    +0.156 HD
ATOM     23  H   UNL     1      24.206   2.986  54.082  1.00  0.00    +0.156 HD
ENDBRANCH  12  21
ENDBRANCH   3  11
ENDBRANCH   1   2
BRANCH   1  24
ATOM     24  C   UNL     1      27.742   8.944  48.774  1.00  0.00    +0.146 C 
BRANCH  24  25
ATOM     25  C   UNL     1      27.213   9.194  50.151  1.00  0.00    +0.305 C 
ATOM     26  O   UNL     1      26.123   9.649  50.448  1.00  0.00    -0.252 OA
BRANCH  25  27
ATOM     27  O   UNL     1      28.110   8.877  51.105  1.00  0.00    -0.481 OA
ATOM     28  H   UNL     1      28.065   7.899  51.173  1.00  0.00    +0.296 HD
ENDBRANCH  25  27
ENDBRANCH  24  25
ENDBRANCH   1  24
TORSDOF 7
ENDMDL
MODEL 9
REMARK VINA RESULT:    -7.215      4.417      9.197
REMARK INTER + INTRA:         -10.433
REMARK INTER:                  -9.785
REMARK INTRA:                  -0.648
REMARK UNBOUND:                -0.688
REMARK SMILES N#CC(C#N)=C(C#N)C(N)=Cc1ccc2c(cnn2CCC(=O)O)c1
REMARK SMILES IDX 20 1 19 2 12 3 13 4 25 5 14 6 16 7 15 8 17 9 18 10 11 11
REMARK SMILES IDX 9 12 6 13 1 14 2 15 3 16 4 17 5 18 7 19 8 20 10 21 21 24
REMARK SMILES IDX 22 25 23 26 24 27
REMARK H PARENT 10 22 10 23 24 28
ROOT
ATOM      1  C   UNL     1      17.686  -1.070  52.626  1.00  0.00    +0.156 C 
ENDROOT
BRANCH   1   2
ATOM      2  N   UNL     1      18.821  -0.329  52.108  1.00  0.00    -0.264 N 
ATOM      3  C   UNL     1      22.605   0.666  53.406  1.00  0.00    -0.023 A 
ATOM      4  C   UNL     1      21.836  -0.088  54.300  1.00  0.00    +0.010 A 
ATOM      5  C   UNL     1      22.076   1.041  52.161  1.00  0.00    +0.020 A 
ATOM      6  C   UNL     1      20.535  -0.494  53.980  1.00  0.00    +0.029 A 
ATOM      7  C   UNL     1      20.772   0.640  51.823  1.00  0.00    +0.020 A 
ATOM      8  C   UNL     1      20.028  -0.112  52.731  1.00  0.00    +0.068 A 
ATOM      9  C   UNL     1      19.920   0.802  50.710  1.00  0.00    +0.143 A 
ATOM     10  N   UNL     1      18.738   0.205  50.873  1.00  0.00    -0.180 NA
BRANCH   3  11
ATOM     11  C   UNL     1      23.963   1.069  53.792  1.00  0.00    +0.035 C 
ATOM     12  C   UNL     1      25.077   0.344  53.556  1.00  0.00    +0.052 C 
BRANCH  12  13
ATOM     13  C   UNL     1      26.368   0.870  54.012  1.00  0.00    +0.103 C 
ATOM     14  N   UNL     1      26.263   2.580  50.990  1.00  0.00    -0.192 NA
ATOM     15  C   UNL     1      26.648   2.207  52.019  1.00  0.00    +0.112 C 
ATOM     16  C   UNL     1      27.106   1.737  53.283  1.00  0.00    +0.149 C 
ATOM     17  C   UNL     1      28.363   2.224  53.744  1.00  0.00    +0.112 C 
ATOM     18  N   UNL     1      29.386   2.623  54.113  1.00  0.00    -0.192 NA
ATOM     19  C   UNL     1      26.822   0.393  55.282  1.00  0.00    +0.103 C 
ATOM     20  N   UNL     1      27.219   0.014  56.303  1.00  0.00    -0.192 NA
ENDBRANCH  12  13
BRANCH  12  21
ATOM     21  N   UNL     1      25.088  -0.884  52.926  1.00  0.00    -0.398 N 
ATOM     22  H   UNL     1      25.981  -1.183  52.544  1.00  0.00    +0.156 HD
ATOM     23  H   UNL     1      24.645  -1.627  53.467  1.00  0.00    +0.156 HD
ENDBRANCH  12  21
ENDBRANCH   3  11
ENDBRANCH   1   2
BRANCH   1  24
ATOM     24  C   UNL     1      16.432  -0.807  51.811  1.00  0.00    +0.146 C 
BRANCH  24  25
ATOM     25  C   UNL     1      15.627   0.280  52.450  1.00  0.00    +0.305 C 
ATOM     26  O   UNL     1      15.531   1.438  52.083  1.00  0.00    -0.252 OA
BRANCH  25  27
ATOM     27  O   UNL     1      14.988  -0.146  53.557  1.00  0.00    -0.481 OA
ATOM     28  H   UNL     1      14.558   0.656  53.921  1.00  0.00    +0.296 HD
ENDBRANCH  25  27
ENDBRANCH  24  25
ENDBRANCH   1  24
TORSDOF 7
ENDMDL
