MODEL 1
REMARK VINA RESULT:    -9.169      0.000      0.000
REMARK INTER + INTRA:         -13.158
REMARK INTER:                 -12.117
REMARK INTRA:                  -1.041
REMARK UNBOUND:                -1.041
REMARK SMILES CN(C(=O)c1ccc(F)c(Cl)c1)c1ccc(-c2cc(O)ccc2[N+](=O)[O-])[nH]1
REMARK SMILES IDX 13 1 14 2 15 3 16 4 27 5 2 7 1 8 3 9 4 10 5 11 6 12 12 13
REMARK SMILES IDX 7 14 10 15 8 16 11 17 9 18 17 19 18 20 23 21 19 22 22 23
REMARK SMILES IDX 21 24 24 25 25 26 26 27 20 28
REMARK H PARENT 27 6 20 29
ROOT
ATOM      1  C   UNL     1      23.933   1.375  51.921  1.00  0.00    +0.113 A 
ATOM      2  C   UNL     1      23.395   0.603  52.931  1.00  0.00    +0.047 A 
ATOM      3  C   UNL     1      24.444  -0.157  53.507  1.00  0.00    +0.031 A 
ATOM      4  C   UNL     1      25.617   0.161  52.845  1.00  0.00    +0.054 A 
ATOM      5  N   UNL     1      25.279   1.088  51.885  1.00  0.00    -0.341 N 
ATOM      6  H   UNL     1      25.918   1.522  51.225  1.00  0.00    +0.168 HD
ENDROOT
BRANCH   1   7
ATOM      7  N   UNL     1      23.321   2.303  51.060  1.00  0.00    -0.297 N 
ATOM      8  C   UNL     1      22.546   1.825  49.912  1.00  0.00    +0.155 C 
BRANCH   7   9
ATOM      9  C   UNL     1      23.480   3.672  51.345  1.00  0.00    +0.259 C 
ATOM     10  O   UNL     1      23.084   4.245  52.362  1.00  0.00    -0.269 OA
BRANCH   9  11
ATOM     11  C   UNL     1      24.159   4.530  50.350  1.00  0.00    +0.042 A 
ATOM     12  C   UNL     1      23.503   5.647  49.815  1.00  0.00    +0.017 A 
ATOM     13  C   UNL     1      25.487   4.249  50.012  1.00  0.00    +0.037 A 
ATOM     14  C   UNL     1      24.172   6.465  48.903  1.00  0.00    +0.041 A 
ATOM     15  C   UNL     1      26.147   5.072  49.101  1.00  0.00    +0.077 A 
ATOM     16  C   UNL     1      25.488   6.170  48.548  1.00  0.00    +0.141 A 
ATOM     17 Cl   UNL     1      27.774   4.717  48.666  1.00  0.00    -0.081 Cl
ATOM     18  F   UNL     1      26.107   6.970  47.668  1.00  0.00    -0.205 F 
ENDBRANCH   9  11
ENDBRANCH   7   9
ENDBRANCH   1   7
BRANCH   4  19
ATOM     19  C   UNL     1      26.986  -0.318  53.030  1.00  0.00    +0.079 A 
ATOM     20  C   UNL     1      27.231  -1.701  53.031  1.00  0.00    +0.063 A 
ATOM     21  C   UNL     1      28.089   0.526  53.228  1.00  0.00    +0.278 A 
ATOM     22  C   UNL     1      28.521  -2.196  53.228  1.00  0.00    +0.116 A 
ATOM     23  C   UNL     1      29.389   0.034  53.429  1.00  0.00    +0.090 A 
ATOM     24  C   UNL     1      29.601  -1.343  53.429  1.00  0.00    +0.053 A 
BRANCH  21  25
ATOM     25  N   UNL     1      27.932   1.963  53.193  1.00  0.00    +0.063 N 
ATOM     26  O   UNL     1      27.781   2.491  52.083  1.00  0.00    -0.258 OA
ATOM     27  O   UNL     1      28.016   2.562  54.276  1.00  0.00    -0.258 OA
ENDBRANCH  21  25
BRANCH  22  28
ATOM     28  O   UNL     1      28.681  -3.551  53.221  1.00  0.00    -0.508 OA
ATOM     29  H   UNL     1      29.452  -3.779  52.676  1.00  0.00    +0.293 HD
ENDBRANCH  22  28
ENDBRANCH   4  19
TORSDOF 6
ENDMDL
MODEL 2
REMARK VINA RESULT:    -8.604      1.814      2.039
REMARK INTER + INTRA:         -12.412
REMARK INTER:                 -11.272
REMARK INTRA:                  -1.140
REMARK UNBOUND:                -1.041
REMARK SMILES CN(C(=O)c1ccc(F)c(Cl)c1)c1ccc(-c2cc(O)ccc2[N+](=O)[O-])[nH]1
REMARK SMILES IDX 13 1 14 2 15 3 16 4 27 5 2 7 1 8 3 9 4 10 5 11 6 12 12 13
REMARK SMILES IDX 7 14 10 15 8 16 11 17 9 18 17 19 18 20 23 21 19 22 22 23
REMARK SMILES IDX 21 24 24 25 25 26 26 27 20 28
REMARK H PARENT 27 6 20 29
ROOT
ATOM      1  C   UNL     1      24.943   2.181  51.609  1.00  0.00    +0.113 A 
ATOM      2  C   UNL     1      24.395   2.014  52.864  1.00  0.00    +0.047 A 
ATOM      3  C   UNL     1      25.269   1.189  53.617  1.00  0.00    +0.031 A 
ATOM      4  C   UNL     1      26.348   0.864  52.814  1.00  0.00    +0.054 A 
ATOM      5  N   UNL     1      26.124   1.472  51.599  1.00  0.00    -0.341 N 
ATOM      6  H   UNL     1      26.732   1.426  50.788  1.00  0.00    +0.168 HD
ENDROOT
BRANCH   1   7
ATOM      7  N   UNL     1      24.477   2.914  50.503  1.00  0.00    -0.297 N 
ATOM      8  C   UNL     1      23.172   2.595  49.919  1.00  0.00    +0.155 C 
BRANCH   7   9
ATOM      9  C   UNL     1      25.298   3.940  49.999  1.00  0.00    +0.259 C 
ATOM     10  O   UNL     1      26.482   3.821  49.675  1.00  0.00    -0.269 OA
BRANCH   9  11
ATOM     11  C   UNL     1      24.729   5.297  49.851  1.00  0.00    +0.042 A 
ATOM     12  C   UNL     1      24.183   5.960  50.959  1.00  0.00    +0.017 A 
ATOM     13  C   UNL     1      24.812   5.931  48.606  1.00  0.00    +0.037 A 
ATOM     14  C   UNL     1      23.682   7.254  50.807  1.00  0.00    +0.041 A 
ATOM     15  C   UNL     1      24.309   7.223  48.465  1.00  0.00    +0.077 A 
ATOM     16  C   UNL     1      23.744   7.876  49.560  1.00  0.00    +0.141 A 
ATOM     17 Cl   UNL     1      24.391   7.998  46.930  1.00  0.00    -0.081 Cl
ATOM     18  F   UNL     1      23.253   9.117  49.440  1.00  0.00    -0.205 F 
ENDBRANCH   9  11
ENDBRANCH   7   9
ENDBRANCH   1   7
BRANCH   4  19
ATOM     19  C   UNL     1      27.535   0.052  53.080  1.00  0.00    +0.079 A 
ATOM     20  C   UNL     1      27.473  -1.336  52.873  1.00  0.00    +0.063 A 
ATOM     21  C   UNL     1      28.748   0.573  53.553  1.00  0.00    +0.278 A 
ATOM     22  C   UNL     1      28.578  -2.147  53.139  1.00  0.00    +0.116 A 
ATOM     23  C   UNL     1      29.862  -0.237  53.824  1.00  0.00    +0.090 A 
ATOM     24  C   UNL     1      29.770  -1.611  53.614  1.00  0.00    +0.053 A 
BRANCH  21  25
ATOM     25  N   UNL     1      28.912   1.997  53.747  1.00  0.00    +0.063 N 
ATOM     26  O   UNL     1      28.746   2.726  52.760  1.00  0.00    -0.258 OA
ATOM     27  O   UNL     1      29.260   2.372  54.876  1.00  0.00    -0.258 OA
ENDBRANCH  21  25
BRANCH  22  28
ATOM     28  O   UNL     1      28.442  -3.486  52.919  1.00  0.00    -0.508 OA
ATOM     29  H   UNL     1      28.242  -3.637  51.980  1.00  0.00    +0.293 HD
ENDBRANCH  22  28
ENDBRANCH   4  19
TORSDOF 6
ENDMDL
MODEL 3
REMARK VINA RESULT:    -8.509      2.374      2.947
REMARK INTER + INTRA:         -12.287
REMARK INTER:                 -11.392
REMARK INTRA:                  -0.895
REMARK UNBOUND:                -1.041
REMARK SMILES CN(C(=O)c1ccc(F)c(Cl)c1)c1ccc(-c2cc(O)ccc2[N+](=O)[O-])[nH]1
REMARK SMILES IDX 13 1 14 2 15 3 16 4 27 5 2 7 1 8 3 9 4 10 5 11 6 12 12 13
REMARK SMILES IDX 7 14 10 15 8 16 11 17 9 18 17 19 18 20 23 21 19 22 22 23
REMARK SMILES IDX 21 24 24 25 25 26 26 27 20 28
REMARK H PARENT 27 6 20 29
ROOT
ATOM      1  C   UNL     1      24.117   1.815  52.096  1.00  0.00    +0.113 A 
ATOM      2  C   UNL     1      23.480   0.865  52.868  1.00  0.00    +0.047 A 
ATOM      3  C   UNL     1      24.461  -0.042  53.344  1.00  0.00    +0.031 A 
ATOM      4  C   UNL     1      25.691   0.366  52.859  1.00  0.00    +0.054 A 
ATOM      5  N   UNL     1      25.455   1.491  52.101  1.00  0.00    -0.341 N 
ATOM      6  H   UNL     1      26.155   2.032  51.603  1.00  0.00    +0.168 HD
ENDROOT
BRANCH   1   7
ATOM      7  N   UNL     1      23.598   2.929  51.413  1.00  0.00    -0.297 N 
ATOM      8  C   UNL     1      22.675   3.836  52.101  1.00  0.00    +0.155 C 
BRANCH   7   9
ATOM      9  C   UNL     1      23.996   3.128  50.078  1.00  0.00    +0.259 C 
ATOM     10  O   UNL     1      25.153   3.308  49.692  1.00  0.00    -0.269 OA
BRANCH   9  11
ATOM     11  C   UNL     1      22.960   3.151  49.024  1.00  0.00    +0.042 A 
ATOM     12  C   UNL     1      22.040   2.098  48.913  1.00  0.00    +0.017 A 
ATOM     13  C   UNL     1      22.869   4.273  48.191  1.00  0.00    +0.037 A 
ATOM     14  C   UNL     1      21.048   2.154  47.933  1.00  0.00    +0.041 A 
ATOM     15  C   UNL     1      21.874   4.319  47.217  1.00  0.00    +0.077 A 
ATOM     16  C   UNL     1      20.973   3.261  47.088  1.00  0.00    +0.141 A 
ATOM     17 Cl   UNL     1      21.772   5.686  46.177  1.00  0.00    -0.081 Cl
ATOM     18  F   UNL     1      20.012   3.288  46.154  1.00  0.00    -0.205 F 
ENDBRANCH   9  11
ENDBRANCH   7   9
ENDBRANCH   1   7
BRANCH   4  19
ATOM     19  C   UNL     1      27.030  -0.194  53.039  1.00  0.00    +0.079 A 
ATOM     20  C   UNL     1      27.196  -1.588  53.010  1.00  0.00    +0.063 A 
ATOM     21  C   UNL     1      28.178   0.581  53.261  1.00  0.00    +0.278 A 
ATOM     22  C   UNL     1      28.455  -2.161  53.202  1.00  0.00    +0.116 A 
ATOM     23  C   UNL     1      29.446   0.011  53.457  1.00  0.00    +0.090 A 
ATOM     24  C   UNL     1      29.580  -1.375  53.428  1.00  0.00    +0.053 A 
BRANCH  21  25
ATOM     25  N   UNL     1      28.103   2.025  53.258  1.00  0.00    +0.063 N 
ATOM     26  O   UNL     1      28.025   2.587  52.158  1.00  0.00    -0.258 OA
ATOM     27  O   UNL     1      28.178   2.592  54.358  1.00  0.00    -0.258 OA
ENDBRANCH  21  25
BRANCH  22  28
ATOM     28  O   UNL     1      28.538  -3.522  53.165  1.00  0.00    -0.508 OA
ATOM     29  H   UNL     1      29.461  -3.790  53.308  1.00  0.00    +0.293 HD
ENDBRANCH  22  28
ENDBRANCH   4  19
TORSDOF 6
ENDMDL
MODEL 4
REMARK VINA RESULT:    -8.480      3.675      4.790
REMARK INTER + INTRA:         -12.248
REMARK INTER:                 -11.529
REMARK INTRA:                  -0.718
REMARK UNBOUND:                -1.041
REMARK SMILES CN(C(=O)c1ccc(F)c(Cl)c1)c1ccc(-c2cc(O)ccc2[N+](=O)[O-])[nH]1
REMARK SMILES IDX 13 1 14 2 15 3 16 4 27 5 2 7 1 8 3 9 4 10 5 11 6 12 12 13
REMARK SMILES IDX 7 14 10 15 8 16 11 17 9 18 17 19 18 20 23 21 19 22 22 23
REMARK SMILES IDX 21 24 24 25 25 26 26 27 20 28
REMARK H PARENT 27 6 20 29
ROOT
ATOM      1  C   UNL     1      23.806   1.275  52.173  1.00  0.00    +0.113 A 
ATOM      2  C   UNL     1      23.367   0.532  53.250  1.00  0.00    +0.047 A 
ATOM      3  C   UNL     1      24.476  -0.184  53.769  1.00  0.00    +0.031 A 
ATOM      4  C   UNL     1      25.585   0.133  53.005  1.00  0.00    +0.054 A 
ATOM      5  N   UNL     1      25.151   1.014  52.040  1.00  0.00    -0.341 N 
ATOM      6  H   UNL     1      25.725   1.435  51.316  1.00  0.00    +0.168 HD
ENDROOT
BRANCH   1   7
ATOM      7  N   UNL     1      23.106   2.155  51.329  1.00  0.00    -0.297 N 
ATOM      8  C   UNL     1      23.700   2.564  50.054  1.00  0.00    +0.155 C 
BRANCH   7   9
ATOM      9  C   UNL     1      21.843   2.610  51.753  1.00  0.00    +0.259 C 
ATOM     10  O   UNL     1      21.631   3.625  52.419  1.00  0.00    -0.269 OA
BRANCH   9  11
ATOM     11  C   UNL     1      20.647   1.814  51.402  1.00  0.00    +0.042 A 
ATOM     12  C   UNL     1      20.079   1.915  50.125  1.00  0.00    +0.017 A 
ATOM     13  C   UNL     1      20.142   0.907  52.342  1.00  0.00    +0.037 A 
ATOM     14  C   UNL     1      18.971   1.130  49.802  1.00  0.00    +0.041 A 
ATOM     15  C   UNL     1      19.036   0.128  52.009  1.00  0.00    +0.077 A 
ATOM     16  C   UNL     1      18.453   0.245  50.746  1.00  0.00    +0.141 A 
ATOM     17 Cl   UNL     1      18.398  -0.973  53.169  1.00  0.00    -0.081 Cl
ATOM     18  F   UNL     1      17.387  -0.496  50.412  1.00  0.00    -0.205 F 
ENDBRANCH   9  11
ENDBRANCH   7   9
ENDBRANCH   1   7
BRANCH   4  19
ATOM     19  C   UNL     1      26.976  -0.310  53.098  1.00  0.00    +0.079 A 
ATOM     20  C   UNL     1      27.256  -1.686  53.079  1.00  0.00    +0.063 A 
ATOM     21  C   UNL     1      28.066   0.562  53.226  1.00  0.00    +0.278 A 
ATOM     22  C   UNL     1      28.569  -2.147  53.190  1.00  0.00    +0.116 A 
ATOM     23  C   UNL     1      29.389   0.105  53.340  1.00  0.00    +0.090 A 
ATOM     24  C   UNL     1      29.637  -1.266  53.322  1.00  0.00    +0.053 A 
BRANCH  21  25
ATOM     25  N   UNL     1      27.870   1.995  53.205  1.00  0.00    +0.063 N 
ATOM     26  O   UNL     1      27.889   2.586  54.294  1.00  0.00    -0.258 OA
ATOM     27  O   UNL     1      27.643   2.514  52.103  1.00  0.00    -0.258 OA
ENDBRANCH  21  25
BRANCH  22  28
ATOM     28  O   UNL     1      28.764  -3.497  53.168  1.00  0.00    -0.508 OA
ATOM     29  H   UNL     1      29.556  -3.715  53.687  1.00  0.00    +0.293 HD
ENDBRANCH  22  28
ENDBRANCH   4  19
TORSDOF 6
ENDMDL
MODEL 5
REMARK VINA RESULT:    -8.302      2.926      3.591
REMARK INTER + INTRA:         -12.012
REMARK INTER:                 -11.203
REMARK INTRA:                  -0.809
REMARK UNBOUND:                -1.041
REMARK SMILES CN(C(=O)c1ccc(F)c(Cl)c1)c1ccc(-c2cc(O)ccc2[N+](=O)[O-])[nH]1
REMARK SMILES IDX 13 1 14 2 15 3 16 4 27 5 2 7 1 8 3 9 4 10 5 11 6 12 12 13
REMARK SMILES IDX 7 14 10 15 8 16 11 17 9 18 17 19 18 20 23 21 19 22 22 23
REMARK SMILES IDX 21 24 24 25 25 26 26 27 20 28
REMARK H PARENT 27 6 20 29
ROOT
ATOM      1  C   UNL     1      24.583   2.062  52.167  1.00  0.00    +0.113 A 
ATOM      2  C   UNL     1      23.931   1.296  53.113  1.00  0.00    +0.047 A 
ATOM      3  C   UNL     1      24.855   0.345  53.617  1.00  0.00    +0.031 A 
ATOM      4  C   UNL     1      26.065   0.543  52.977  1.00  0.00    +0.054 A 
ATOM      5  N   UNL     1      25.872   1.585  52.099  1.00  0.00    -0.341 N 
ATOM      6  H   UNL     1      26.571   1.975  51.473  1.00  0.00    +0.168 HD
ENDROOT
BRANCH   1   7
ATOM      7  N   UNL     1      24.117   3.137  51.390  1.00  0.00    -0.297 N 
ATOM      8  C   UNL     1      24.529   3.250  49.988  1.00  0.00    +0.155 C 
BRANCH   7   9
ATOM      9  C   UNL     1      23.261   4.071  52.002  1.00  0.00    +0.259 C 
ATOM     10  O   UNL     1      23.591   4.901  52.852  1.00  0.00    -0.269 OA
BRANCH   9  11
ATOM     11  C   UNL     1      21.829   4.071  51.631  1.00  0.00    +0.042 A 
ATOM     12  C   UNL     1      20.954   3.129  52.190  1.00  0.00    +0.017 A 
ATOM     13  C   UNL     1      21.354   5.070  50.774  1.00  0.00    +0.037 A 
ATOM     14  C   UNL     1      19.600   3.166  51.854  1.00  0.00    +0.041 A 
ATOM     15  C   UNL     1      20.000   5.099  50.446  1.00  0.00    +0.077 A 
ATOM     16  C   UNL     1      19.131   4.147  50.981  1.00  0.00    +0.141 A 
ATOM     17 Cl   UNL     1      19.416   6.313  49.375  1.00  0.00    -0.081 Cl
ATOM     18  F   UNL     1      17.827   4.159  50.673  1.00  0.00    -0.205 F 
ENDBRANCH   9  11
ENDBRANCH   7   9
ENDBRANCH   1   7
BRANCH   4  19
ATOM     19  C   UNL     1      27.349  -0.145  53.113  1.00  0.00    +0.079 A 
ATOM     20  C   UNL     1      27.396  -1.539  52.955  1.00  0.00    +0.063 A 
ATOM     21  C   UNL     1      28.555   0.505  53.413  1.00  0.00    +0.278 A 
ATOM     22  C   UNL     1      28.598  -2.233  53.101  1.00  0.00    +0.116 A 
ATOM     23  C   UNL     1      29.767  -0.187  53.563  1.00  0.00    +0.090 A 
ATOM     24  C   UNL     1      29.783  -1.572  53.406  1.00  0.00    +0.053 A 
BRANCH  21  25
ATOM     25  N   UNL     1      28.603   1.944  53.544  1.00  0.00    +0.063 N 
ATOM     26  O   UNL     1      28.443   2.613  52.515  1.00  0.00    -0.258 OA
ATOM     27  O   UNL     1      28.857   2.396  54.671  1.00  0.00    -0.258 OA
ENDBRANCH  21  25
BRANCH  22  28
ATOM     28  O   UNL     1      28.566  -3.588  52.938  1.00  0.00    -0.508 OA
ATOM     29  H   UNL     1      29.460  -3.946  53.061  1.00  0.00    +0.293 HD
ENDBRANCH  22  28
ENDBRANCH   4  19
TORSDOF 6
ENDMDL
MODEL 6
REMARK VINA RESULT:    -8.192      3.971      5.639
REMARK INTER + INTRA:         -11.868
REMARK INTER:                 -10.701
REMARK INTRA:                  -1.167
REMARK UNBOUND:                -1.041
REMARK SMILES CN(C(=O)c1ccc(F)c(Cl)c1)c1ccc(-c2cc(O)ccc2[N+](=O)[O-])[nH]1
REMARK SMILES IDX 13 1 14 2 15 3 16 4 27 5 2 7 1 8 3 9 4 10 5 11 6 12 12 13
REMARK SMILES IDX 7 14 10 15 8 16 11 17 9 18 17 19 18 20 23 21 19 22 22 23
REMARK SMILES IDX 21 24 24 25 25 26 26 27 20 28
REMARK H PARENT 27 6 20 29
ROOT
ATOM      1  C   UNL     1      24.180   2.541  51.116  1.00  0.00    +0.113 A 
ATOM      2  C   UNL     1      25.120   2.894  50.168  1.00  0.00    +0.047 A 
ATOM      3  C   UNL     1      26.399   2.537  50.666  1.00  0.00    +0.031 A 
ATOM      4  C   UNL     1      26.228   1.964  51.914  1.00  0.00    +0.054 A 
ATOM      5  N   UNL     1      24.875   1.983  52.166  1.00  0.00    -0.341 N 
ATOM      6  H   UNL     1      24.419   1.636  53.005  1.00  0.00    +0.168 HD
ENDROOT
BRANCH   1   7
ATOM      7  N   UNL     1      22.781   2.670  51.101  1.00  0.00    -0.297 N 
ATOM      8  C   UNL     1      22.157   3.875  51.653  1.00  0.00    +0.155 C 
BRANCH   7   9
ATOM      9  C   UNL     1      22.028   1.619  50.544  1.00  0.00    +0.259 C 
ATOM     10  O   UNL     1      22.011   1.298  49.354  1.00  0.00    -0.269 OA
BRANCH   9  11
ATOM     11  C   UNL     1      21.154   0.823  51.433  1.00  0.00    +0.042 A 
ATOM     12  C   UNL     1      19.805   0.626  51.107  1.00  0.00    +0.017 A 
ATOM     13  C   UNL     1      21.715   0.213  52.560  1.00  0.00    +0.037 A 
ATOM     14  C   UNL     1      19.004  -0.157  51.940  1.00  0.00    +0.041 A 
ATOM     15  C   UNL     1      20.907  -0.566  53.386  1.00  0.00    +0.077 A 
ATOM     16  C   UNL     1      19.558  -0.744  53.077  1.00  0.00    +0.141 A 
ATOM     17 Cl   UNL     1      21.589  -1.301  54.785  1.00  0.00    -0.081 Cl
ATOM     18  F   UNL     1      18.767  -1.489  53.862  1.00  0.00    -0.205 F 
ENDBRANCH   9  11
ENDBRANCH   7   9
ENDBRANCH   1   7
BRANCH   4  19
ATOM     19  C   UNL     1      27.198   1.419  52.863  1.00  0.00    +0.079 A 
ATOM     20  C   UNL     1      28.161   2.274  53.422  1.00  0.00    +0.063 A 
ATOM     21  C   UNL     1      27.242   0.070  53.246  1.00  0.00    +0.278 A 
ATOM     22  C   UNL     1      29.118   1.785  54.313  1.00  0.00    +0.116 A 
ATOM     23  C   UNL     1      28.203  -0.429  54.141  1.00  0.00    +0.090 A 
ATOM     24  C   UNL     1      29.150   0.442  54.676  1.00  0.00    +0.053 A 
BRANCH  21  25
ATOM     25  N   UNL     1      26.257  -0.868  52.755  1.00  0.00    +0.063 N 
ATOM     26  O   UNL     1      25.124  -0.811  53.251  1.00  0.00    -0.258 OA
ATOM     27  O   UNL     1      26.640  -1.693  51.913  1.00  0.00    -0.258 OA
ENDBRANCH  21  25
BRANCH  22  28
ATOM     28  O   UNL     1      30.025   2.674  54.811  1.00  0.00    -0.508 OA
ATOM     29  H   UNL     1      30.915   2.289  54.754  1.00  0.00    +0.293 HD
ENDBRANCH  22  28
ENDBRANCH   4  19
TORSDOF 6
ENDMDL
MODEL 7
REMARK VINA RESULT:    -8.152      3.943      7.377
REMARK INTER + INTRA:         -11.815
REMARK INTER:                 -10.673
REMARK INTRA:                  -1.141
REMARK UNBOUND:                -1.041
REMARK SMILES CN(C(=O)c1ccc(F)c(Cl)c1)c1ccc(-c2cc(O)ccc2[N+](=O)[O-])[nH]1
REMARK SMILES IDX 13 1 14 2 15 3 16 4 27 5 2 7 1 8 3 9 4 10 5 11 6 12 12 13
REMARK SMILES IDX 7 14 10 15 8 16 11 17 9 18 17 19 18 20 23 21 19 22 22 23
REMARK SMILES IDX 21 24 24 25 25 26 26 27 20 28
REMARK H PARENT 27 6 20 29
ROOT
ATOM      1  C   UNL     1      24.268   2.707  52.108  1.00  0.00    +0.113 A 
ATOM      2  C   UNL     1      23.565   3.864  52.373  1.00  0.00    +0.047 A 
ATOM      3  C   UNL     1      22.181   3.559  52.314  1.00  0.00    +0.031 A 
ATOM      4  C   UNL     1      22.053   2.213  52.017  1.00  0.00    +0.054 A 
ATOM      5  N   UNL     1      23.332   1.721  51.891  1.00  0.00    -0.341 N 
ATOM      6  H   UNL     1      23.583   0.762  51.672  1.00  0.00    +0.168 HD
ENDROOT
BRANCH   1   7
ATOM      7  N   UNL     1      25.654   2.476  52.058  1.00  0.00    -0.297 N 
ATOM      8  C   UNL     1      26.401   2.806  50.842  1.00  0.00    +0.155 C 
BRANCH   7   9
ATOM      9  C   UNL     1      26.273   1.932  53.199  1.00  0.00    +0.259 C 
ATOM     10  O   UNL     1      26.405   2.500  54.286  1.00  0.00    -0.269 OA
BRANCH   9  11
ATOM     11  C   UNL     1      26.844   0.570  53.116  1.00  0.00    +0.042 A 
ATOM     12  C   UNL     1      26.083  -0.485  52.595  1.00  0.00    +0.017 A 
ATOM     13  C   UNL     1      28.176   0.373  53.497  1.00  0.00    +0.037 A 
ATOM     14  C   UNL     1      26.650  -1.756  52.493  1.00  0.00    +0.041 A 
ATOM     15  C   UNL     1      28.734  -0.899  53.390  1.00  0.00    +0.077 A 
ATOM     16  C   UNL     1      27.970  -1.957  52.895  1.00  0.00    +0.141 A 
ATOM     17 Cl   UNL     1      30.365  -1.151  53.878  1.00  0.00    -0.081 Cl
ATOM     18  F   UNL     1      28.491  -3.188  52.788  1.00  0.00    -0.205 F 
ENDBRANCH   9  11
ENDBRANCH   7   9
ENDBRANCH   1   7
BRANCH   4  19
ATOM     19  C   UNL     1      20.866   1.375  51.844  1.00  0.00    +0.079 A 
ATOM     20  C   UNL     1      20.051   1.572  50.718  1.00  0.00    +0.063 A 
ATOM     21  C   UNL     1      20.471   0.383  52.753  1.00  0.00    +0.278 A 
ATOM     22  C   UNL     1      18.897   0.808  50.530  1.00  0.00    +0.116 A 
ATOM     23  C   UNL     1      19.312  -0.388  52.571  1.00  0.00    +0.090 A 
ATOM     24  C   UNL     1      18.519  -0.168  51.447  1.00  0.00    +0.053 A 
BRANCH  21  25
ATOM     25  N   UNL     1      21.280   0.083  53.914  1.00  0.00    +0.063 N 
ATOM     26  O   UNL     1      22.299  -0.597  53.734  1.00  0.00    -0.258 OA
ATOM     27  O   UNL     1      20.860   0.486  55.008  1.00  0.00    -0.258 OA
ENDBRANCH  21  25
BRANCH  22  28
ATOM     28  O   UNL     1      18.152   1.059  49.415  1.00  0.00    -0.508 OA
ATOM     29  H   UNL     1      17.296   1.434  49.680  1.00  0.00    +0.293 HD
ENDBRANCH  22  28
ENDBRANCH   4  19
TORSDOF 6
ENDMDL
MODEL 8
REMARK VINA RESULT:    -7.899      4.565      7.232
REMARK INTER + INTRA:         -11.480
REMARK INTER:                 -10.353
REMARK INTRA:                  -1.127
REMARK UNBOUND:                -1.041
REMARK SMILES CN(C(=O)c1ccc(F)c(Cl)c1)c1ccc(-c2cc(O)ccc2[N+](=O)[O-])[nH]1
REMARK SMILES IDX 13 1 14 2 15 3 16 4 27 5 2 7 1 8 3 9 4 10 5 11 6 12 12 13
REMARK SMILES IDX 7 14 10 15 8 16 11 17 9 18 17 19 18 20 23 21 19 22 22 23
REMARK SMILES IDX 21 24 24 25 25 26 26 27 20 28
REMARK H PARENT 27 6 20 29
ROOT
ATOM      1  C   UNL     1      21.141   1.877  49.993  1.00  0.00    +0.113 A 
ATOM      2  C   UNL     1      21.341   1.390  48.717  1.00  0.00    +0.047 A 
ATOM      3  C   UNL     1      22.410   2.117  48.134  1.00  0.00    +0.031 A 
ATOM      4  C   UNL     1      22.857   3.040  49.063  1.00  0.00    +0.054 A 
ATOM      5  N   UNL     1      22.068   2.878  50.179  1.00  0.00    -0.341 N 
ATOM      6  H   UNL     1      22.138   3.410  51.042  1.00  0.00    +0.168 HD
ENDROOT
BRANCH   1   7
ATOM      7  N   UNL     1      20.218   1.490  50.980  1.00  0.00    -0.297 N 
ATOM      8  C   UNL     1      19.021   0.736  50.598  1.00  0.00    +0.155 C 
BRANCH   7   9
ATOM      9  C   UNL     1      20.490   1.847  52.314  1.00  0.00    +0.259 C 
ATOM     10  O   UNL     1      20.146   2.897  52.862  1.00  0.00    -0.269 OA
BRANCH   9  11
ATOM     11  C   UNL     1      21.272   0.914  53.154  1.00  0.00    +0.042 A 
ATOM     12  C   UNL     1      20.643   0.179  54.168  1.00  0.00    +0.017 A 
ATOM     13  C   UNL     1      22.629   0.726  52.868  1.00  0.00    +0.037 A 
ATOM     14  C   UNL     1      21.391  -0.722  54.928  1.00  0.00    +0.041 A 
ATOM     15  C   UNL     1      23.366  -0.177  53.632  1.00  0.00    +0.077 A 
ATOM     16  C   UNL     1      22.748  -0.892  54.659  1.00  0.00    +0.141 A 
ATOM     17 Cl   UNL     1      25.041  -0.396  53.298  1.00  0.00    -0.081 Cl
ATOM     18  F   UNL     1      23.445  -1.761  55.404  1.00  0.00    -0.205 F 
ENDBRANCH   9  11
ENDBRANCH   7   9
ENDBRANCH   1   7
BRANCH   4  19
ATOM     19  C   UNL     1      23.928   4.033  48.994  1.00  0.00    +0.079 A 
ATOM     20  C   UNL     1      25.224   3.669  49.393  1.00  0.00    +0.063 A 
ATOM     21  C   UNL     1      23.740   5.356  48.565  1.00  0.00    +0.278 A 
ATOM     22  C   UNL     1      26.267   4.597  49.363  1.00  0.00    +0.116 A 
ATOM     23  C   UNL     1      24.784   6.294  48.535  1.00  0.00    +0.090 A 
ATOM     24  C   UNL     1      26.059   5.906  48.941  1.00  0.00    +0.053 A 
BRANCH  21  25
ATOM     25  N   UNL     1      22.448   5.800  48.092  1.00  0.00    +0.063 N 
ATOM     26  O   UNL     1      22.347   6.072  46.888  1.00  0.00    -0.258 OA
ATOM     27  O   UNL     1      21.554   5.926  48.941  1.00  0.00    -0.258 OA
ENDBRANCH  21  25
BRANCH  22  28
ATOM     28  O   UNL     1      27.498   4.171  49.770  1.00  0.00    -0.508 OA
ATOM     29  H   UNL     1      28.182   4.677  49.301  1.00  0.00    +0.293 HD
ENDBRANCH  22  28
ENDBRANCH   4  19
TORSDOF 6
ENDMDL
MODEL 9
REMARK VINA RESULT:    -7.893      3.089      4.279
REMARK INTER + INTRA:         -11.472
REMARK INTER:                 -10.341
REMARK INTRA:                  -1.130
REMARK UNBOUND:                -1.041
REMARK SMILES CN(C(=O)c1ccc(F)c(Cl)c1)c1ccc(-c2cc(O)ccc2[N+](=O)[O-])[nH]1
REMARK SMILES IDX 13 1 14 2 15 3 16 4 27 5 2 7 1 8 3 9 4 10 5 11 6 12 12 13
REMARK SMILES IDX 7 14 10 15 8 16 11 17 9 18 17 19 18 20 23 21 19 22 22 23
REMARK SMILES IDX 21 24 24 25 25 26 26 27 20 28
REMARK H PARENT 27 6 20 29
ROOT
ATOM      1  C   UNL     1      22.127   2.964  50.258  1.00  0.00    +0.113 A 
ATOM      2  C   UNL     1      21.688   1.950  49.430  1.00  0.00    +0.047 A 
ATOM      3  C   UNL     1      21.655   0.751  50.187  1.00  0.00    +0.031 A 
ATOM      4  C   UNL     1      22.071   1.046  51.473  1.00  0.00    +0.054 A 
ATOM      5  N   UNL     1      22.357   2.392  51.489  1.00  0.00    -0.341 N 
ATOM      6  H   UNL     1      22.692   2.921  52.288  1.00  0.00    +0.168 HD
ENDROOT
BRANCH   1   7
ATOM      7  N   UNL     1      22.322   4.331  49.997  1.00  0.00    -0.297 N 
ATOM      8  C   UNL     1      21.413   5.033  49.086  1.00  0.00    +0.155 C 
BRANCH   7   9
ATOM      9  C   UNL     1      23.398   4.978  50.634  1.00  0.00    +0.259 C 
ATOM     10  O   UNL     1      23.325   5.648  51.666  1.00  0.00    -0.269 OA
BRANCH   9  11
ATOM     11  C   UNL     1      24.743   4.883  50.027  1.00  0.00    +0.042 A 
ATOM     12  C   UNL     1      25.474   3.689  50.112  1.00  0.00    +0.017 A 
ATOM     13  C   UNL     1      25.237   5.977  49.308  1.00  0.00    +0.037 A 
ATOM     14  C   UNL     1      26.728   3.608  49.504  1.00  0.00    +0.041 A 
ATOM     15  C   UNL     1      26.490   5.885  48.704  1.00  0.00    +0.077 A 
ATOM     16  C   UNL     1      27.230   4.706  48.807  1.00  0.00    +0.141 A 
ATOM     17 Cl   UNL     1      27.111   7.235  47.836  1.00  0.00    -0.081 Cl
ATOM     18  F   UNL     1      28.438   4.602  48.234  1.00  0.00    -0.205 F 
ENDBRANCH   9  11
ENDBRANCH   7   9
ENDBRANCH   1   7
BRANCH   4  19
ATOM     19  C   UNL     1      22.221   0.195  52.654  1.00  0.00    +0.079 A 
ATOM     20  C   UNL     1      21.110  -0.524  53.123  1.00  0.00    +0.063 A 
ATOM     21  C   UNL     1      23.418   0.062  53.373  1.00  0.00    +0.278 A 
ATOM     22  C   UNL     1      21.209  -1.327  54.261  1.00  0.00    +0.116 A 
ATOM     23  C   UNL     1      23.524  -0.742  54.519  1.00  0.00    +0.090 A 
ATOM     24  C   UNL     1      22.404  -1.441  54.964  1.00  0.00    +0.053 A 
BRANCH  21  25
ATOM     25  N   UNL     1      24.622   0.731  52.930  1.00  0.00    +0.063 N 
ATOM     26  O   UNL     1      24.724   1.939  53.182  1.00  0.00    -0.258 OA
ATOM     27  O   UNL     1      25.434   0.052  52.284  1.00  0.00    -0.258 OA
ENDBRANCH  21  25
BRANCH  22  28
ATOM     28  O   UNL     1      20.087  -1.993  54.659  1.00  0.00    -0.508 OA
ATOM     29  H   UNL     1      20.245  -2.949  54.602  1.00  0.00    +0.293 HD
ENDBRANCH  22  28
ENDBRANCH   4  19
TORSDOF 6
ENDMDL
