REMARK SMILES Cc1cc(C)c(N(C(=O)c2ccccc2)c2ccc(O)cc2)[nH]1
REMARK SMILES IDX 16 1 17 2 18 3 19 4 21 5 22 6 7 7 6 8 2 9 3 10 23 11 4 12
REMARK SMILES IDX 1 13 5 15 8 16 9 17 10 18 11 19 15 20 12 21 14 22 13 23
REMARK SMILES IDX 20 24
REMARK H PARENT 23 14 20 25
ROOT
ATOM      1  C   UNL     1      -0.065   0.924  -0.109  1.00  0.00    +0.051 A 
ATOM      2  C   UNL     1      -0.366   1.370  -1.405  1.00  0.00    +0.030 A 
ATOM      3  C   UNL     1      -0.153   2.703  -1.761  1.00  0.00    +0.048 A 
ATOM      4  C   UNL     1       0.365   3.590  -0.826  1.00  0.00    +0.115 A 
ATOM      5  C   UNL     1       0.675   3.169   0.463  1.00  0.00    +0.048 A 
ATOM      6  C   UNL     1       0.463   1.834   0.819  1.00  0.00    +0.030 A 
ENDROOT
BRANCH   1   7
ATOM      7  N   UNL     1      -0.233  -0.447   0.235  1.00  0.00    -0.262 N 
BRANCH   7   8
ATOM      8  C   UNL     1      -1.514  -1.020   0.068  1.00  0.00    +0.120 A 
ATOM      9  C   UNL     1      -2.964  -2.765  -0.098  1.00  0.00    +0.014 A 
ATOM     10  C   UNL     1      -3.681  -1.610  -0.295  1.00  0.00    +0.028 A 
ATOM     11  N   UNL     1      -1.675  -2.391   0.163  1.00  0.00    -0.345 N 
ATOM     12  C   UNL     1      -2.792  -0.499  -0.151  1.00  0.00    -0.008 A 
ATOM     13  C   UNL     1      -3.378  -4.188  -0.100  1.00  0.00    +0.064 C 
ATOM     14  H   UNL     1      -0.916  -3.017   0.410  1.00  0.00    +0.168 HD
ATOM     15  C   UNL     1      -3.257   0.916  -0.196  1.00  0.00    +0.048 C 
ENDBRANCH   7   8
BRANCH   7  16
ATOM     16  C   UNL     1       0.804  -1.237   0.785  1.00  0.00    +0.263 C 
ATOM     17  O   UNL     1       0.654  -2.358   1.282  1.00  0.00    -0.268 OA
BRANCH  16  18
ATOM     18  C   UNL     1       2.205  -0.746   0.736  1.00  0.00    +0.040 A 
ATOM     19  C   UNL     1       2.793  -0.347  -0.470  1.00  0.00    +0.014 A 
ATOM     20  C   UNL     1       2.960  -0.757   1.915  1.00  0.00    +0.014 A 
ATOM     21  C   UNL     1       4.119   0.088  -0.484  1.00  0.00    +0.001 A 
ATOM     22  C   UNL     1       4.286  -0.324   1.895  1.00  0.00    +0.001 A 
ATOM     23  C   UNL     1       4.862   0.104   0.698  1.00  0.00    +0.000 A 
ENDBRANCH  16  18
ENDBRANCH   7  16
ENDBRANCH   1   7
BRANCH   4  24
ATOM     24  O   UNL     1       0.558   4.882  -1.216  1.00  0.00    -0.508 OA
ATOM     25  H   UNL     1       0.916   5.384  -0.466  1.00  0.00    +0.293 HD
ENDBRANCH   4  24
TORSDOF 5
