REMARK SMILES Cc1cc(-c2ccc(O)c([N+](=O)[O-])c2)[nH]c1N1CCOCC1
REMARK SMILES IDX 5 1 6 2 7 3 8 4 10 5 14 6 4 7 2 8 3 9 16 10 15 11 1 12 17 14
REMARK SMILES IDX 18 15 22 16 19 17 21 18 20 19 11 20 12 21 13 22 9 23
REMARK H PARENT 15 13 9 24
ROOT
ATOM      1  C   UNL     1       2.327   0.217   0.389  1.00  0.00    +0.005 A 
ATOM      2  C   UNL     1       2.580   0.814   1.632  1.00  0.00    +0.014 A 
ATOM      3  C   UNL     1       3.849   0.744   2.215  1.00  0.00    +0.054 A 
ATOM      4  C   UNL     1       4.887   0.080   1.566  1.00  0.00    +0.194 A 
ATOM      5  C   UNL     1       4.649  -0.515   0.320  1.00  0.00    +0.311 A 
ATOM      6  C   UNL     1       3.374  -0.446  -0.266  1.00  0.00    +0.100 A 
ENDROOT
BRANCH   1   7
ATOM      7  C   UNL     1       1.001   0.286  -0.227  1.00  0.00    +0.047 A 
ATOM      8  C   UNL     1      -0.803   0.397  -1.631  1.00  0.00    -0.008 A 
ATOM      9  C   UNL     1       0.623   0.347  -1.556  1.00  0.00    +0.034 A 
ATOM     10  C   UNL     1      -1.267   0.356  -0.328  1.00  0.00    +0.109 A 
ATOM     11  N   UNL     1      -0.170   0.281   0.494  1.00  0.00    -0.341 N 
ATOM     12  C   UNL     1      -1.577   0.446  -2.898  1.00  0.00    +0.048 C 
ATOM     13  H   UNL     1      -0.237   0.253   1.499  1.00  0.00    +0.168 HD
BRANCH  10  14
ATOM     14  N   UNL     1      -2.497   0.388   0.258  1.00  0.00    -0.353 N 
ATOM     15  C   UNL     1      -2.933  -0.840   0.969  1.00  0.00    +0.146 C 
ATOM     16  C   UNL     1      -3.606   1.135  -0.370  1.00  0.00    +0.146 C 
ATOM     17  C   UNL     1      -4.389  -0.704   1.441  1.00  0.00    +0.181 C 
ATOM     18  C   UNL     1      -4.754   0.191  -0.753  1.00  0.00    +0.181 C 
ATOM     19  O   UNL     1      -5.323  -0.505   0.369  1.00  0.00    -0.378 OA
ENDBRANCH  10  14
ENDBRANCH   1   7
BRANCH   5  20
ATOM     20  N   UNL     1       5.716  -1.219  -0.394  1.00  0.00    +0.066 N 
ATOM     21  O   UNL     1       6.829  -1.277   0.154  1.00  0.00    -0.258 OA
ATOM     22  O   UNL     1       5.454  -1.715  -1.499  1.00  0.00    -0.258 OA
ENDBRANCH   5  20
BRANCH   4  23
ATOM     23  O   UNL     1       6.082   0.076   2.232  1.00  0.00    -0.502 OA
ATOM     24  H   UNL     1       6.755  -0.410   1.709  1.00  0.00    +0.293 HD
ENDBRANCH   4  23
TORSDOF 4
