REMARK SMILES C[N+](C)(C)C[C@H](O)COc1ncnc2sccc12
REMARK SMILES IDX 6 1 5 2 2 3 1 4 3 5 4 6 7 7 8 9 9 10 10 11 11 12 18 13 12 14
REMARK SMILES IDX 17 15 14 16 13 17 16 18 15 19
REMARK H PARENT 7 8
ROOT
ATOM      1  C   UNL     1      -0.525   0.126   1.027  1.00  0.00    +0.206 C 
ENDROOT
BRANCH   1   2
ATOM      2  C   UNL     1      -1.562  -1.019   0.979  1.00  0.00    +0.299 C 
BRANCH   2   3
ATOM      3  N   UNL     1      -2.910  -0.779   0.245  1.00  0.00    -0.329 N 
ATOM      4  C   UNL     1      -3.554   0.546   0.644  1.00  0.00    +0.334 C 
ATOM      5  C   UNL     1      -2.772  -0.851  -1.266  1.00  0.00    +0.334 C 
ATOM      6  C   UNL     1      -3.862  -1.905   0.677  1.00  0.00    +0.334 C 
ENDBRANCH   2   3
ENDBRANCH   1   2
BRANCH   1   7
ATOM      7  O   UNL     1      -1.070   1.278   1.689  1.00  0.00    -0.384 OA
ATOM      8  H   UNL     1      -0.332   1.913   1.798  1.00  0.00    +0.211 HD
ENDBRANCH   1   7
BRANCH   1   9
ATOM      9  C   UNL     1       0.064   0.534  -0.325  1.00  0.00    +0.269 C 
BRANCH   9  10
ATOM     10  O   UNL     1       1.281   1.268  -0.133  1.00  0.00    -0.474 OA
BRANCH  10  11
ATOM     11  C   UNL     1       2.409   0.469  -0.059  1.00  0.00    +0.225 A 
ATOM     12  N   UNL     1       2.269  -0.865   0.110  1.00  0.00    -0.201 NA
ATOM     13  C   UNL     1       3.677   1.053  -0.115  1.00  0.00    +0.074 A 
ATOM     14  C   UNL     1       3.397  -1.594   0.197  1.00  0.00    +0.227 A 
ATOM     15  C   UNL     1       4.140   2.402  -0.267  1.00  0.00    +0.028 A 
ATOM     16  C   UNL     1       4.740   0.173  -0.007  1.00  0.00    +0.130 A 
ATOM     17  N   UNL     1       4.657  -1.159   0.148  1.00  0.00    -0.225 NA
ATOM     18  C   UNL     1       5.516   2.489  -0.268  1.00  0.00    +0.068 A 
ATOM     19  S   UNL     1       6.252   0.955  -0.087  1.00  0.00    -0.124 S 
ENDBRANCH  10  11
ENDBRANCH   9  10
ENDBRANCH   1   9
TORSDOF 6
