REMARK SMILES Cc1cc(-c2ccc(O)c([N+](=O)[O-])c2)[nH]c1-c1ccc(F)c(Cl)c1
REMARK SMILES IDX 5 1 6 2 7 3 8 4 10 5 14 6 4 7 2 8 3 9 16 10 15 11 1 12 17 14
REMARK SMILES IDX 18 15 24 16 19 17 22 18 20 19 23 20 21 21 11 22 12 23 13 24
REMARK SMILES IDX 9 25
REMARK H PARENT 15 13 9 26
ROOT
ATOM      1  C   UNL     1      -2.115   0.020  -0.160  1.00  0.00    +0.005 A 
ATOM      2  C   UNL     1      -2.482   1.277  -0.668  1.00  0.00    +0.014 A 
ATOM      3  C   UNL     1      -3.815   1.712  -0.634  1.00  0.00    +0.054 A 
ATOM      4  C   UNL     1      -4.798   0.892  -0.087  1.00  0.00    +0.194 A 
ATOM      5  C   UNL     1      -4.432  -0.352   0.422  1.00  0.00    +0.311 A 
ATOM      6  C   UNL     1      -3.107  -0.802   0.385  1.00  0.00    +0.100 A 
ENDROOT
BRANCH   1   7
ATOM      7  C   UNL     1      -0.725  -0.437  -0.204  1.00  0.00    +0.046 A 
ATOM      8  C   UNL     1       1.221  -1.623  -0.327  1.00  0.00    -0.025 A 
ATOM      9  C   UNL     1      -0.200  -1.703  -0.385  1.00  0.00    +0.032 A 
ATOM     10  C   UNL     1       1.540  -0.292  -0.098  1.00  0.00    +0.049 A 
ATOM     11  N   UNL     1       0.352   0.401  -0.026  1.00  0.00    -0.354 N 
ATOM     12  C   UNL     1       2.159  -2.766  -0.494  1.00  0.00    +0.047 C 
ATOM     13  H   UNL     1       0.284   1.388   0.177  1.00  0.00    +0.167 HD
BRANCH  10  14
ATOM     14  C   UNL     1       2.831   0.370   0.076  1.00  0.00    -0.000 A 
ATOM     15  C   UNL     1       3.168   1.484  -0.707  1.00  0.00    +0.013 A 
ATOM     16  C   UNL     1       3.744  -0.101   1.029  1.00  0.00    +0.034 A 
ATOM     17  C   UNL     1       4.402   2.117  -0.541  1.00  0.00    +0.041 A 
ATOM     18  C   UNL     1       4.976   0.534   1.194  1.00  0.00    +0.077 A 
ATOM     19  C   UNL     1       5.298   1.639   0.409  1.00  0.00    +0.141 A 
ATOM     20 Cl   UNL     1       6.083  -0.058   2.372  1.00  0.00    -0.081 Cl
ATOM     21  F   UNL     1       6.477   2.263   0.552  1.00  0.00    -0.205 F 
ENDBRANCH  10  14
ENDBRANCH   1   7
BRANCH   5  22
ATOM     22  N   UNL     1      -5.428  -1.220   1.011  1.00  0.00    +0.066 N 
ATOM     23  O   UNL     1      -5.607  -2.318   0.464  1.00  0.00    -0.258 OA
ATOM     24  O   UNL     1      -5.984  -0.832   2.048  1.00  0.00    -0.258 OA
ENDBRANCH   5  22
BRANCH   4  25
ATOM     25  O   UNL     1      -6.099   1.300  -0.080  1.00  0.00    -0.502 OA
ATOM     26  H   UNL     1      -6.167   2.207  -0.423  1.00  0.00    +0.293 HD
ENDBRANCH   4  25
TORSDOF 4
