MODEL 1
REMARK VINA RESULT:    -6.042      0.000      0.000
REMARK INTER + INTRA:          -7.535
REMARK INTER:                  -6.925
REMARK INTRA:                  -0.610
REMARK UNBOUND:                -0.610
REMARK SMILES N#CC(C#N)=C(C#N)C(N)=Cc1cccc(Cl)c1
REMARK SMILES IDX 9 1 11 2 6 3 1 4 2 5 3 6 4 7 5 8 7 9 8 10 10 11 12 14 13 15
REMARK SMILES IDX 18 16 14 17 16 18 15 19 17 20
REMARK H PARENT 10 12 10 13
ROOT
ATOM      1  C   UNL     1      25.296   1.938  53.674  1.00  0.00    +0.052 C 
ATOM      2  C   UNL     1      24.127   2.437  53.222  1.00  0.00    +0.035 C 
ENDROOT
BRANCH   1   3
ATOM      3  C   UNL     1      25.677   0.537  53.456  1.00  0.00    +0.103 C 
ATOM      4  N   UNL     1      26.945  -2.367  52.012  1.00  0.00    -0.192 NA
ATOM      5  C   UNL     1      26.661  -1.252  52.155  1.00  0.00    +0.112 C 
ATOM      6  C   UNL     1      26.311   0.115  52.341  1.00  0.00    +0.149 C 
ATOM      7  C   UNL     1      26.659   1.023  51.299  1.00  0.00    +0.112 C 
ATOM      8  N   UNL     1      26.930   1.757  50.442  1.00  0.00    -0.192 NA
ATOM      9  C   UNL     1      25.325  -0.372  54.504  1.00  0.00    +0.103 C 
ATOM     10  N   UNL     1      25.038  -1.098  55.361  1.00  0.00    -0.192 NA
ENDBRANCH   1   3
BRANCH   1  11
ATOM     11  N   UNL     1      26.226   2.739  54.310  1.00  0.00    -0.398 N 
ATOM     12  H   UNL     1      27.185   2.399  54.240  1.00  0.00    +0.156 HD
ATOM     13  H   UNL     1      26.173   3.729  54.074  1.00  0.00    +0.156 HD
ENDBRANCH   1  11
BRANCH   2  14
ATOM     14  C   UNL     1      23.094   1.675  52.512  1.00  0.00    -0.022 A 
ATOM     15  C   UNL     1      23.019   1.701  51.113  1.00  0.00    +0.008 A 
ATOM     16  C   UNL     1      22.167   0.919  53.239  1.00  0.00    +0.028 A 
ATOM     17  C   UNL     1      22.019   0.990  50.448  1.00  0.00    +0.002 A 
ATOM     18  C   UNL     1      21.171   0.210  52.567  1.00  0.00    +0.041 A 
ATOM     19  C   UNL     1      21.092   0.245  51.177  1.00  0.00    +0.020 A 
ATOM     20 Cl   UNL     1      20.028  -0.710  53.465  1.00  0.00    -0.084 Cl
ENDBRANCH   2  14
TORSDOF 3
ENDMDL
MODEL 2
REMARK VINA RESULT:    -5.835      3.422      5.088
REMARK INTER + INTRA:          -7.298
REMARK INTER:                  -6.671
REMARK INTRA:                  -0.627
REMARK UNBOUND:                -0.610
REMARK SMILES N#CC(C#N)=C(C#N)C(N)=Cc1cccc(Cl)c1
REMARK SMILES IDX 9 1 11 2 6 3 1 4 2 5 3 6 4 7 5 8 7 9 8 10 10 11 12 14 13 15
REMARK SMILES IDX 18 16 14 17 16 18 15 19 17 20
REMARK H PARENT 10 12 10 13
ROOT
ATOM      1  C   UNL     1      24.059   4.138  52.029  1.00  0.00    +0.052 C 
ATOM      2  C   UNL     1      24.251   3.382  53.130  1.00  0.00    +0.035 C 
ENDROOT
BRANCH   1   3
ATOM      3  C   UNL     1      23.977   3.546  50.687  1.00  0.00    +0.103 C 
ATOM      4  N   UNL     1      22.735   2.103  47.771  1.00  0.00    -0.192 NA
ATOM      5  C   UNL     1      22.766   2.570  48.832  1.00  0.00    +0.112 C 
ATOM      6  C   UNL     1      22.812   3.148  50.132  1.00  0.00    +0.149 C 
ATOM      7  C   UNL     1      21.575   3.290  50.825  1.00  0.00    +0.112 C 
ATOM      8  N   UNL     1      20.568   3.389  51.394  1.00  0.00    -0.192 NA
ATOM      9  C   UNL     1      25.221   3.404  49.995  1.00  0.00    +0.103 C 
ATOM     10  N   UNL     1      26.234   3.298  49.442  1.00  0.00    -0.192 NA
ENDBRANCH   1   3
BRANCH   1  11
ATOM     11  N   UNL     1      23.864   5.503  52.114  1.00  0.00    -0.398 N 
ATOM     12  H   UNL     1      24.584   6.057  51.650  1.00  0.00    +0.156 HD
ATOM     13  H   UNL     1      22.933   5.822  51.848  1.00  0.00    +0.156 HD
ENDBRANCH   1  11
BRANCH   2  14
ATOM     14  C   UNL     1      24.437   1.927  53.143  1.00  0.00    -0.022 A 
ATOM     15  C   UNL     1      23.334   1.066  53.206  1.00  0.00    +0.008 A 
ATOM     16  C   UNL     1      25.729   1.394  53.099  1.00  0.00    +0.028 A 
ATOM     17  C   UNL     1      23.523  -0.318  53.240  1.00  0.00    +0.002 A 
ATOM     18  C   UNL     1      25.910   0.011  53.132  1.00  0.00    +0.041 A 
ATOM     19  C   UNL     1      24.813  -0.846  53.204  1.00  0.00    +0.020 A 
ATOM     20 Cl   UNL     1      27.501  -0.642  53.087  1.00  0.00    -0.084 Cl
ENDBRANCH   2  14
TORSDOF 3
ENDMDL
MODEL 3
REMARK VINA RESULT:    -5.834      1.366      2.940
REMARK INTER + INTRA:          -7.296
REMARK INTER:                  -6.644
REMARK INTRA:                  -0.653
REMARK UNBOUND:                -0.610
REMARK SMILES N#CC(C#N)=C(C#N)C(N)=Cc1cccc(Cl)c1
REMARK SMILES IDX 9 1 11 2 6 3 1 4 2 5 3 6 4 7 5 8 7 9 8 10 10 11 12 14 13 15
REMARK SMILES IDX 18 16 14 17 16 18 15 19 17 20
REMARK H PARENT 10 12 10 13
ROOT
ATOM      1  C   UNL     1      25.471   1.968  53.508  1.00  0.00    +0.052 C 
ATOM      2  C   UNL     1      24.173   2.318  53.401  1.00  0.00    +0.035 C 
ENDROOT
BRANCH   1   3
ATOM      3  C   UNL     1      26.028   0.822  52.777  1.00  0.00    +0.103 C 
ATOM      4  N   UNL     1      27.057  -2.402  51.953  1.00  0.00    -0.192 NA
ATOM      5  C   UNL     1      26.608  -1.518  52.555  1.00  0.00    +0.112 C 
ATOM      6  C   UNL     1      26.055  -0.429  53.286  1.00  0.00    +0.149 C 
ATOM      7  C   UNL     1      25.529  -0.713  54.579  1.00  0.00    +0.112 C 
ATOM      8  N   UNL     1      25.116  -0.945  55.639  1.00  0.00    -0.192 NA
ATOM      9  C   UNL     1      26.556   1.111  51.479  1.00  0.00    +0.103 C 
ATOM     10  N   UNL     1      26.977   1.357  50.428  1.00  0.00    -0.192 NA
ENDBRANCH   1   3
BRANCH   1  11
ATOM     11  N   UNL     1      26.361   2.710  54.261  1.00  0.00    -0.398 N 
ATOM     12  H   UNL     1      26.268   3.719  54.141  1.00  0.00    +0.156 HD
ATOM     13  H   UNL     1      26.399   2.464  55.249  1.00  0.00    +0.156 HD
ENDBRANCH   1  11
BRANCH   2  14
ATOM     14  C   UNL     1      23.163   1.612  52.605  1.00  0.00    -0.022 A 
ATOM     15  C   UNL     1      22.347   0.634  53.187  1.00  0.00    +0.008 A 
ATOM     16  C   UNL     1      23.018   1.914  51.246  1.00  0.00    +0.028 A 
ATOM     17  C   UNL     1      21.404  -0.047  52.415  1.00  0.00    +0.002 A 
ATOM     18  C   UNL     1      22.073   1.231  50.481  1.00  0.00    +0.041 A 
ATOM     19  C   UNL     1      21.268   0.251  51.059  1.00  0.00    +0.020 A 
ATOM     20 Cl   UNL     1      21.903   1.598  48.810  1.00  0.00    -0.084 Cl
ENDBRANCH   2  14
TORSDOF 3
ENDMDL
MODEL 4
REMARK VINA RESULT:    -5.831      3.568      4.923
REMARK INTER + INTRA:          -7.293
REMARK INTER:                  -6.743
REMARK INTRA:                  -0.550
REMARK UNBOUND:                -0.610
REMARK SMILES N#CC(C#N)=C(C#N)C(N)=Cc1cccc(Cl)c1
REMARK SMILES IDX 9 1 11 2 6 3 1 4 2 5 3 6 4 7 5 8 7 9 8 10 10 11 12 14 13 15
REMARK SMILES IDX 18 16 14 17 16 18 15 19 17 20
REMARK H PARENT 10 12 10 13
ROOT
ATOM      1  C   UNL     1      23.285   4.354  51.810  1.00  0.00    +0.052 C 
ATOM      2  C   UNL     1      23.884   3.683  52.816  1.00  0.00    +0.035 C 
ENDROOT
BRANCH   1   3
ATOM      3  C   UNL     1      22.721   3.662  50.645  1.00  0.00    +0.103 C 
ATOM      4  N   UNL     1      22.402   2.123  47.537  1.00  0.00    -0.192 NA
ATOM      5  C   UNL     1      22.879   2.667  48.443  1.00  0.00    +0.112 C 
ATOM      6  C   UNL     1      23.457   3.331  49.561  1.00  0.00    +0.149 C 
ATOM      7  C   UNL     1      24.847   3.635  49.491  1.00  0.00    +0.112 C 
ATOM      8  N   UNL     1      25.976   3.894  49.424  1.00  0.00    -0.192 NA
ATOM      9  C   UNL     1      21.324   3.360  50.719  1.00  0.00    +0.103 C 
ATOM     10  N   UNL     1      20.193   3.117  50.792  1.00  0.00    -0.192 NA
ENDBRANCH   1   3
BRANCH   1  11
ATOM     11  N   UNL     1      23.113   5.725  51.857  1.00  0.00    -0.398 N 
ATOM     12  H   UNL     1      23.378   6.148  52.746  1.00  0.00    +0.156 HD
ATOM     13  H   UNL     1      23.521   6.235  51.075  1.00  0.00    +0.156 HD
ENDBRANCH   1  11
BRANCH   2  14
ATOM     14  C   UNL     1      24.084   2.231  52.871  1.00  0.00    -0.022 A 
ATOM     15  C   UNL     1      23.017   1.372  53.160  1.00  0.00    +0.008 A 
ATOM     16  C   UNL     1      25.357   1.698  52.638  1.00  0.00    +0.028 A 
ATOM     17  C   UNL     1      23.222  -0.008  53.232  1.00  0.00    +0.002 A 
ATOM     18  C   UNL     1      25.555   0.319  52.710  1.00  0.00    +0.041 A 
ATOM     19  C   UNL     1      24.495  -0.535  53.008  1.00  0.00    +0.020 A 
ATOM     20 Cl   UNL     1      27.122  -0.332  52.433  1.00  0.00    -0.084 Cl
ENDBRANCH   2  14
TORSDOF 3
ENDMDL
MODEL 5
REMARK VINA RESULT:    -5.729      2.173      2.605
REMARK INTER + INTRA:          -7.176
REMARK INTER:                  -6.700
REMARK INTRA:                  -0.476
REMARK UNBOUND:                -0.610
REMARK SMILES N#CC(C#N)=C(C#N)C(N)=Cc1cccc(Cl)c1
REMARK SMILES IDX 9 1 11 2 6 3 1 4 2 5 3 6 4 7 5 8 7 9 8 10 10 11 12 14 13 15
REMARK SMILES IDX 18 16 14 17 16 18 15 19 17 20
REMARK H PARENT 10 12 10 13
ROOT
ATOM      1  C   UNL     1      24.173   2.796  52.974  1.00  0.00    +0.052 C 
ATOM      2  C   UNL     1      23.143   3.194  52.199  1.00  0.00    +0.035 C 
ENDROOT
BRANCH   1   3
ATOM      3  C   UNL     1      24.786   1.470  52.826  1.00  0.00    +0.103 C 
ATOM      4  N   UNL     1      26.898  -1.113  51.826  1.00  0.00    -0.192 NA
ATOM      5  C   UNL     1      26.439  -0.053  51.925  1.00  0.00    +0.112 C 
ATOM      6  C   UNL     1      25.872   1.246  52.054  1.00  0.00    +0.149 C 
ATOM      7  C   UNL     1      26.498   2.304  51.334  1.00  0.00    +0.112 C 
ATOM      8  N   UNL     1      27.001   3.161  50.733  1.00  0.00    -0.192 NA
ATOM      9  C   UNL     1      24.155   0.410  53.550  1.00  0.00    +0.103 C 
ATOM     10  N   UNL     1      23.637  -0.440  54.144  1.00  0.00    -0.192 NA
ENDBRANCH   1   3
BRANCH   1  11
ATOM     11  N   UNL     1      24.748   3.641  53.903  1.00  0.00    -0.398 N 
ATOM     12  H   UNL     1      24.750   3.274  54.855  1.00  0.00    +0.156 HD
ATOM     13  H   UNL     1      25.668   3.998  53.649  1.00  0.00    +0.156 HD
ENDBRANCH   1  11
BRANCH   2  14
ATOM     14  C   UNL     1      22.489   2.381  51.168  1.00  0.00    -0.022 A 
ATOM     15  C   UNL     1      21.542   1.410  51.515  1.00  0.00    +0.008 A 
ATOM     16  C   UNL     1      22.821   2.573  49.822  1.00  0.00    +0.028 A 
ATOM     17  C   UNL     1      20.941   0.627  50.528  1.00  0.00    +0.002 A 
ATOM     18  C   UNL     1      22.216   1.788  48.840  1.00  0.00    +0.041 A 
ATOM     19  C   UNL     1      21.280   0.815  49.188  1.00  0.00    +0.020 A 
ATOM     20 Cl   UNL     1      22.632   2.019  47.188  1.00  0.00    -0.084 Cl
ENDBRANCH   2  14
TORSDOF 3
ENDMDL
MODEL 6
REMARK VINA RESULT:    -5.514      4.706      7.127
REMARK INTER + INTRA:          -6.929
REMARK INTER:                  -6.263
REMARK INTRA:                  -0.666
REMARK UNBOUND:                -0.610
REMARK SMILES N#CC(C#N)=C(C#N)C(N)=Cc1cccc(Cl)c1
REMARK SMILES IDX 9 1 11 2 6 3 1 4 2 5 3 6 4 7 5 8 7 9 8 10 10 11 12 14 13 15
REMARK SMILES IDX 18 16 14 17 16 18 15 19 17 20
REMARK H PARENT 10 12 10 13
ROOT
ATOM      1  C   UNL     1      20.308   2.204  48.865  1.00  0.00    +0.052 C 
ATOM      2  C   UNL     1      21.324   1.393  49.222  1.00  0.00    +0.035 C 
ENDROOT
BRANCH   1   3
ATOM      3  C   UNL     1      19.549   2.978  49.856  1.00  0.00    +0.103 C 
ATOM      4  N   UNL     1      17.147   3.917  52.197  1.00  0.00    -0.192 NA
ATOM      5  C   UNL     1      17.726   3.279  51.420  1.00  0.00    +0.112 C 
ATOM      6  C   UNL     1      18.444   2.501  50.469  1.00  0.00    +0.149 C 
ATOM      7  C   UNL     1      17.948   1.195  50.189  1.00  0.00    +0.112 C 
ATOM      8  N   UNL     1      17.533   0.138  49.952  1.00  0.00    -0.192 NA
ATOM      9  C   UNL     1      20.049   4.290  50.134  1.00  0.00    +0.103 C 
ATOM     10  N   UNL     1      20.466   5.349  50.354  1.00  0.00    -0.192 NA
ENDBRANCH   1   3
BRANCH   1  11
ATOM     11  N   UNL     1      19.969   2.399  47.540  1.00  0.00    -0.398 N 
ATOM     12  H   UNL     1      19.801   3.374  47.292  1.00  0.00    +0.156 HD
ATOM     13  H   UNL     1      20.593   1.956  46.867  1.00  0.00    +0.156 HD
ENDBRANCH   1  11
BRANCH   2  14
ATOM     14  C   UNL     1      21.776   1.147  50.596  1.00  0.00    -0.022 A 
ATOM     15  C   UNL     1      21.238   0.095  51.349  1.00  0.00    +0.008 A 
ATOM     16  C   UNL     1      22.749   1.976  51.164  1.00  0.00    +0.028 A 
ATOM     17  C   UNL     1      21.659  -0.117  52.663  1.00  0.00    +0.002 A 
ATOM     18  C   UNL     1      23.166   1.758  52.478  1.00  0.00    +0.041 A 
ATOM     19  C   UNL     1      22.623   0.717  53.229  1.00  0.00    +0.020 A 
ATOM     20 Cl   UNL     1      24.355   2.785  53.176  1.00  0.00    -0.084 Cl
ENDBRANCH   2  14
TORSDOF 3
ENDMDL
MODEL 7
REMARK VINA RESULT:    -5.371      4.033      6.561
REMARK INTER + INTRA:          -6.765
REMARK INTER:                  -6.457
REMARK INTRA:                  -0.309
REMARK UNBOUND:                -0.610
REMARK SMILES N#CC(C#N)=C(C#N)C(N)=Cc1cccc(Cl)c1
REMARK SMILES IDX 9 1 11 2 6 3 1 4 2 5 3 6 4 7 5 8 7 9 8 10 10 11 12 14 13 15
REMARK SMILES IDX 18 16 14 17 16 18 15 19 17 20
REMARK H PARENT 10 12 10 13
ROOT
ATOM      1  C   UNL     1      20.446   2.409  49.004  1.00  0.00    +0.052 C 
ATOM      2  C   UNL     1      20.791   1.264  49.629  1.00  0.00    +0.035 C 
ENDROOT
BRANCH   1   3
ATOM      3  C   UNL     1      20.996   3.709  49.408  1.00  0.00    +0.103 C 
ATOM      4  N   UNL     1      21.517   6.705  51.107  1.00  0.00    -0.192 NA
ATOM      5  C   UNL     1      21.062   5.679  50.815  1.00  0.00    +0.112 C 
ATOM      6  C   UNL     1      20.512   4.417  50.453  1.00  0.00    +0.149 C 
ATOM      7  C   UNL     1      19.428   3.929  51.238  1.00  0.00    +0.112 C 
ATOM      8  N   UNL     1      18.535   3.543  51.870  1.00  0.00    -0.192 NA
ATOM      9  C   UNL     1      22.083   4.196  48.617  1.00  0.00    +0.103 C 
ATOM     10  N   UNL     1      22.967   4.578  47.971  1.00  0.00    -0.192 NA
ENDBRANCH   1   3
BRANCH   1  11
ATOM     11  N   UNL     1      19.605   2.408  47.907  1.00  0.00    -0.398 N 
ATOM     12  H   UNL     1      18.653   2.106  48.112  1.00  0.00    +0.156 HD
ATOM     13  H   UNL     1      19.604   3.272  47.367  1.00  0.00    +0.156 HD
ENDBRANCH   1  11
BRANCH   2  14
ATOM     14  C   UNL     1      21.698   1.161  50.778  1.00  0.00    -0.022 A 
ATOM     15  C   UNL     1      23.042   1.538  50.666  1.00  0.00    +0.008 A 
ATOM     16  C   UNL     1      21.216   0.674  51.998  1.00  0.00    +0.028 A 
ATOM     17  C   UNL     1      23.901   1.416  51.759  1.00  0.00    +0.002 A 
ATOM     18  C   UNL     1      22.080   0.555  53.087  1.00  0.00    +0.041 A 
ATOM     19  C   UNL     1      23.420   0.921  52.972  1.00  0.00    +0.020 A 
ATOM     20 Cl   UNL     1      21.488  -0.053  54.582  1.00  0.00    -0.084 Cl
ENDBRANCH   2  14
TORSDOF 3
ENDMDL
MODEL 8
REMARK VINA RESULT:    -5.266      3.945      5.750
REMARK INTER + INTRA:          -6.645
REMARK INTER:                  -5.983
REMARK INTRA:                  -0.662
REMARK UNBOUND:                -0.610
REMARK SMILES N#CC(C#N)=C(C#N)C(N)=Cc1cccc(Cl)c1
REMARK SMILES IDX 9 1 11 2 6 3 1 4 2 5 3 6 4 7 5 8 7 9 8 10 10 11 12 14 13 15
REMARK SMILES IDX 18 16 14 17 16 18 15 19 17 20
REMARK H PARENT 10 12 10 13
ROOT
ATOM      1  C   UNL     1      24.927   4.540  50.052  1.00  0.00    +0.052 C 
ATOM      2  C   UNL     1      24.766   3.309  49.524  1.00  0.00    +0.035 C 
ENDROOT
BRANCH   1   3
ATOM      3  C   UNL     1      23.800   5.296  50.613  1.00  0.00    +0.103 C 
ATOM      4  N   UNL     1      21.097   7.469  50.930  1.00  0.00    -0.192 NA
ATOM      5  C   UNL     1      21.979   6.884  50.456  1.00  0.00    +0.112 C 
ATOM      6  C   UNL     1      23.060   6.159  49.882  1.00  0.00    +0.149 C 
ATOM      7  C   UNL     1      23.332   6.380  48.501  1.00  0.00    +0.112 C 
ATOM      8  N   UNL     1      23.560   6.575  47.380  1.00  0.00    -0.192 NA
ATOM      9  C   UNL     1      23.531   5.072  52.000  1.00  0.00    +0.103 C 
ATOM     10  N   UNL     1      23.321   4.879  53.123  1.00  0.00    -0.192 NA
ENDBRANCH   1   3
BRANCH   1  11
ATOM     11  N   UNL     1      26.175   5.126  50.151  1.00  0.00    -0.398 N 
ATOM     12  H   UNL     1      26.759   5.005  49.325  1.00  0.00    +0.156 HD
ATOM     13  H   UNL     1      26.169   6.099  50.453  1.00  0.00    +0.156 HD
ENDBRANCH   1  11
BRANCH   2  14
ATOM     14  C   UNL     1      23.490   2.594  49.403  1.00  0.00    -0.022 A 
ATOM     15  C   UNL     1      22.714   2.705  48.243  1.00  0.00    +0.008 A 
ATOM     16  C   UNL     1      23.040   1.798  50.463  1.00  0.00    +0.028 A 
ATOM     17  C   UNL     1      21.491   2.038  48.147  1.00  0.00    +0.002 A 
ATOM     18  C   UNL     1      21.818   1.134  50.359  1.00  0.00    +0.041 A 
ATOM     19  C   UNL     1      21.042   1.252  49.208  1.00  0.00    +0.020 A 
ATOM     20 Cl   UNL     1      21.262   0.164  51.667  1.00  0.00    -0.084 Cl
ENDBRANCH   2  14
TORSDOF 3
ENDMDL
MODEL 9
REMARK VINA RESULT:    -5.202      3.689      4.867
REMARK INTER + INTRA:          -6.573
REMARK INTER:                  -6.122
REMARK INTRA:                  -0.450
REMARK UNBOUND:                -0.610
REMARK SMILES N#CC(C#N)=C(C#N)C(N)=Cc1cccc(Cl)c1
REMARK SMILES IDX 9 1 11 2 6 3 1 4 2 5 3 6 4 7 5 8 7 9 8 10 10 11 12 14 13 15
REMARK SMILES IDX 18 16 14 17 16 18 15 19 17 20
REMARK H PARENT 10 12 10 13
ROOT
ATOM      1  C   UNL     1      23.157   4.436  52.041  1.00  0.00    +0.052 C 
ATOM      2  C   UNL     1      23.277   4.858  50.766  1.00  0.00    +0.035 C 
ENDROOT
BRANCH   1   3
ATOM      3  C   UNL     1      22.449   3.196  52.384  1.00  0.00    +0.103 C 
ATOM      4  N   UNL     1      21.789  -0.114  53.244  1.00  0.00    -0.192 NA
ATOM      5  C   UNL     1      22.376   0.850  52.980  1.00  0.00    +0.112 C 
ATOM      6  C   UNL     1      23.091   2.038  52.658  1.00  0.00    +0.149 C 
ATOM      7  C   UNL     1      24.513   1.958  52.637  1.00  0.00    +0.112 C 
ATOM      8  N   UNL     1      25.671   1.884  52.605  1.00  0.00    -0.192 NA
ATOM      9  C   UNL     1      21.022   3.280  52.403  1.00  0.00    +0.103 C 
ATOM     10  N   UNL     1      19.865   3.362  52.419  1.00  0.00    -0.192 NA
ENDBRANCH   1   3
BRANCH   1  11
ATOM     11  N   UNL     1      23.750   5.117  53.087  1.00  0.00    -0.398 N 
ATOM     12  H   UNL     1      23.616   4.679  53.998  1.00  0.00    +0.156 HD
ATOM     13  H   UNL     1      24.729   5.361  52.941  1.00  0.00    +0.156 HD
ENDBRANCH   1  11
BRANCH   2  14
ATOM     14  C   UNL     1      22.710   4.188  49.590  1.00  0.00    -0.022 A 
ATOM     15  C   UNL     1      23.316   3.044  49.056  1.00  0.00    +0.008 A 
ATOM     16  C   UNL     1      21.555   4.702  48.990  1.00  0.00    +0.028 A 
ATOM     17  C   UNL     1      22.781   2.426  47.924  1.00  0.00    +0.002 A 
ATOM     18  C   UNL     1      21.025   4.079  47.860  1.00  0.00    +0.041 A 
ATOM     19  C   UNL     1      21.634   2.946  47.323  1.00  0.00    +0.020 A 
ATOM     20 Cl   UNL     1      19.611   4.719  47.119  1.00  0.00    -0.084 Cl
ENDBRANCH   2  14
TORSDOF 3
ENDMDL
