MODEL 1
REMARK VINA RESULT:    -7.160      0.000      0.000
REMARK INTER + INTRA:          -8.789
REMARK INTER:                  -8.207
REMARK INTRA:                  -0.583
REMARK UNBOUND:                -0.583
REMARK SMILES O=[N+]([O-])c1cc(-c2ccccc2)ccc1O
REMARK SMILES IDX 4 1 5 2 6 3 13 4 14 5 15 6 2 7 1 8 3 9 16 10 7 12 8 13 12 14
REMARK SMILES IDX 9 15 11 16 10 17
REMARK H PARENT 16 11
ROOT
ATOM      1  C   UNL     1      27.040   0.560  54.048  1.00  0.00    +0.311 A 
ATOM      2  C   UNL     1      25.724   0.112  54.229  1.00  0.00    +0.098 A 
ATOM      3  C   UNL     1      24.746   0.411  53.269  1.00  0.00    -0.011 A 
ATOM      4  C   UNL     1      25.131   1.165  52.144  1.00  0.00    +0.013 A 
ATOM      5  C   UNL     1      26.448   1.616  51.977  1.00  0.00    +0.054 A 
ATOM      6  C   UNL     1      27.410   1.314  52.936  1.00  0.00    +0.194 A 
ENDROOT
BRANCH   1   7
ATOM      7  N   UNL     1      28.018   0.215  55.056  1.00  0.00    +0.066 N 
ATOM      8  O   UNL     1      27.641   0.253  56.236  1.00  0.00    -0.258 OA
ATOM      9  O   UNL     1      29.137  -0.148  54.669  1.00  0.00    -0.258 OA
ENDBRANCH   1   7
BRANCH   6  10
ATOM     10  O   UNL     1      28.683   1.777  52.794  1.00  0.00    -0.502 OA
ATOM     11  H   UNL     1      28.693   2.547  52.199  1.00  0.00    +0.293 HD
ENDBRANCH   6  10
BRANCH   3  12
ATOM     12  C   UNL     1      23.358  -0.049  53.434  1.00  0.00    -0.018 A 
ATOM     13  C   UNL     1      22.358   0.323  52.519  1.00  0.00    +0.009 A 
ATOM     14  C   UNL     1      22.990  -0.872  54.512  1.00  0.00    +0.009 A 
ATOM     15  C   UNL     1      21.040  -0.114  52.674  1.00  0.00    +0.001 A 
ATOM     16  C   UNL     1      21.672  -1.308  54.669  1.00  0.00    +0.001 A 
ATOM     17  C   UNL     1      20.698  -0.928  53.750  1.00  0.00    +0.000 A 
ENDBRANCH   3  12
TORSDOF 3
ENDMDL
MODEL 2
REMARK VINA RESULT:    -7.011      2.583      4.460
REMARK INTER + INTRA:          -8.618
REMARK INTER:                  -8.051
REMARK INTRA:                  -0.567
REMARK UNBOUND:                -0.583
REMARK SMILES O=[N+]([O-])c1cc(-c2ccccc2)ccc1O
REMARK SMILES IDX 4 1 5 2 6 3 13 4 14 5 15 6 2 7 1 8 3 9 16 10 7 12 8 13 12 14
REMARK SMILES IDX 9 15 11 16 10 17
REMARK H PARENT 16 11
ROOT
ATOM      1  C   UNL     1      24.033  -0.722  54.276  1.00  0.00    +0.311 A 
ATOM      2  C   UNL     1      23.854  -0.036  53.067  1.00  0.00    +0.098 A 
ATOM      3  C   UNL     1      22.560   0.178  52.570  1.00  0.00    -0.011 A 
ATOM      4  C   UNL     1      21.473  -0.315  53.318  1.00  0.00    +0.013 A 
ATOM      5  C   UNL     1      21.664  -1.007  54.522  1.00  0.00    +0.054 A 
ATOM      6  C   UNL     1      22.952  -1.216  55.004  1.00  0.00    +0.194 A 
ENDROOT
BRANCH   1   7
ATOM      7  N   UNL     1      25.384  -0.908  54.757  1.00  0.00    +0.066 N 
ATOM      8  O   UNL     1      26.254  -1.140  53.904  1.00  0.00    -0.258 OA
ATOM      9  O   UNL     1      25.586  -0.764  55.971  1.00  0.00    -0.258 OA
ENDBRANCH   1   7
BRANCH   6  10
ATOM     10  O   UNL     1      23.143  -1.916  56.157  1.00  0.00    -0.502 OA
ATOM     11  H   UNL     1      22.412  -1.743  56.776  1.00  0.00    +0.293 HD
ENDBRANCH   6  10
BRANCH   3  12
ATOM     12  C   UNL     1      22.344   0.897  51.304  1.00  0.00    -0.018 A 
ATOM     13  C   UNL     1      23.196   1.943  50.911  1.00  0.00    +0.009 A 
ATOM     14  C   UNL     1      21.280   0.559  50.451  1.00  0.00    +0.009 A 
ATOM     15  C   UNL     1      22.992   2.626  49.710  1.00  0.00    +0.001 A 
ATOM     16  C   UNL     1      21.074   1.242  49.249  1.00  0.00    +0.001 A 
ATOM     17  C   UNL     1      21.931   2.276  48.880  1.00  0.00    +0.000 A 
ENDBRANCH   3  12
TORSDOF 3
ENDMDL
MODEL 3
REMARK VINA RESULT:    -6.921      1.450      2.344
REMARK INTER + INTRA:          -8.515
REMARK INTER:                  -7.928
REMARK INTRA:                  -0.586
REMARK UNBOUND:                -0.583
REMARK SMILES O=[N+]([O-])c1cc(-c2ccccc2)ccc1O
REMARK SMILES IDX 4 1 5 2 6 3 13 4 14 5 15 6 2 7 1 8 3 9 16 10 7 12 8 13 12 14
REMARK SMILES IDX 9 15 11 16 10 17
REMARK H PARENT 16 11
ROOT
ATOM      1  C   UNL     1      27.881   0.786  53.637  1.00  0.00    +0.311 A 
ATOM      2  C   UNL     1      26.495   0.991  53.661  1.00  0.00    +0.098 A 
ATOM      3  C   UNL     1      25.627  -0.068  53.356  1.00  0.00    -0.011 A 
ATOM      4  C   UNL     1      26.192  -1.316  53.031  1.00  0.00    +0.013 A 
ATOM      5  C   UNL     1      27.581  -1.508  53.002  1.00  0.00    +0.054 A 
ATOM      6  C   UNL     1      28.433  -0.450  53.304  1.00  0.00    +0.194 A 
ENDROOT
BRANCH   1   7
ATOM      7  N   UNL     1      28.738   1.902  53.972  1.00  0.00    +0.066 N 
ATOM      8  O   UNL     1      29.320   1.851  55.066  1.00  0.00    -0.258 OA
ATOM      9  O   UNL     1      28.876   2.794  53.124  1.00  0.00    -0.258 OA
ENDBRANCH   1   7
BRANCH   6  10
ATOM     10  O   UNL     1      29.783  -0.623  53.246  1.00  0.00    -0.502 OA
ATOM     11  H   UNL     1      29.991  -1.561  53.089  1.00  0.00    +0.293 HD
ENDBRANCH   6  10
BRANCH   3  12
ATOM     12  C   UNL     1      24.168   0.120  53.375  1.00  0.00    -0.018 A 
ATOM     13  C   UNL     1      23.337  -0.735  54.120  1.00  0.00    +0.009 A 
ATOM     14  C   UNL     1      23.561   1.159  52.649  1.00  0.00    +0.009 A 
ATOM     15  C   UNL     1      21.951  -0.556  54.139  1.00  0.00    +0.001 A 
ATOM     16  C   UNL     1      22.175   1.337  52.666  1.00  0.00    +0.001 A 
ATOM     17  C   UNL     1      21.371   0.479  53.412  1.00  0.00    +0.000 A 
ENDBRANCH   3  12
TORSDOF 3
ENDMDL
MODEL 4
REMARK VINA RESULT:    -6.866      1.367      1.748
REMARK INTER + INTRA:          -8.452
REMARK INTER:                  -7.842
REMARK INTRA:                  -0.610
REMARK UNBOUND:                -0.583
REMARK SMILES O=[N+]([O-])c1cc(-c2ccccc2)ccc1O
REMARK SMILES IDX 4 1 5 2 6 3 13 4 14 5 15 6 2 7 1 8 3 9 16 10 7 12 8 13 12 14
REMARK SMILES IDX 9 15 11 16 10 17
REMARK H PARENT 16 11
ROOT
ATOM      1  C   UNL     1      26.430   1.702  52.803  1.00  0.00    +0.311 A 
ATOM      2  C   UNL     1      25.392   0.935  53.351  1.00  0.00    +0.098 A 
ATOM      3  C   UNL     1      24.126   0.941  52.747  1.00  0.00    -0.011 A 
ATOM      4  C   UNL     1      23.945   1.732  51.596  1.00  0.00    +0.013 A 
ATOM      5  C   UNL     1      24.988   2.501  51.061  1.00  0.00    +0.054 A 
ATOM      6  C   UNL     1      26.240   2.489  51.670  1.00  0.00    +0.194 A 
ENDROOT
BRANCH   1   7
ATOM      7  N   UNL     1      27.723   1.655  53.451  1.00  0.00    +0.066 N 
ATOM      8  O   UNL     1      28.390   0.622  53.292  1.00  0.00    -0.258 OA
ATOM      9  O   UNL     1      28.095   2.665  54.064  1.00  0.00    -0.258 OA
ENDBRANCH   1   7
BRANCH   6  10
ATOM     10  O   UNL     1      27.247   3.260  51.172  1.00  0.00    -0.502 OA
ATOM     11  H   UNL     1      27.114   4.189  51.432  1.00  0.00    +0.293 HD
ENDBRANCH   6  10
BRANCH   3  12
ATOM     12  C   UNL     1      23.020   0.144  53.300  1.00  0.00    -0.018 A 
ATOM     13  C   UNL     1      21.694   0.362  52.889  1.00  0.00    +0.009 A 
ATOM     14  C   UNL     1      23.256  -0.858  54.257  1.00  0.00    +0.009 A 
ATOM     15  C   UNL     1      20.643  -0.395  53.414  1.00  0.00    +0.001 A 
ATOM     16  C   UNL     1      22.206  -1.614  54.784  1.00  0.00    +0.001 A 
ATOM     17  C   UNL     1      20.900  -1.381  54.361  1.00  0.00    +0.000 A 
ENDBRANCH   3  12
TORSDOF 3
ENDMDL
MODEL 5
REMARK VINA RESULT:    -6.695      3.609      5.517
REMARK INTER + INTRA:          -8.256
REMARK INTER:                  -7.675
REMARK INTRA:                  -0.580
REMARK UNBOUND:                -0.583
REMARK SMILES O=[N+]([O-])c1cc(-c2ccccc2)ccc1O
REMARK SMILES IDX 4 1 5 2 6 3 13 4 14 5 15 6 2 7 1 8 3 9 16 10 7 12 8 13 12 14
REMARK SMILES IDX 9 15 11 16 10 17
REMARK H PARENT 16 11
ROOT
ATOM      1  C   UNL     1      22.675  -0.472  54.216  1.00  0.00    +0.311 A 
ATOM      2  C   UNL     1      22.981   0.409  53.169  1.00  0.00    +0.098 A 
ATOM      3  C   UNL     1      24.320   0.684  52.856  1.00  0.00    -0.011 A 
ATOM      4  C   UNL     1      25.322   0.055  53.620  1.00  0.00    +0.013 A 
ATOM      5  C   UNL     1      25.005  -0.819  54.670  1.00  0.00    +0.054 A 
ATOM      6  C   UNL     1      23.673  -1.083  54.973  1.00  0.00    +0.194 A 
ENDROOT
BRANCH   1   7
ATOM      7  N   UNL     1      21.281  -0.737  54.495  1.00  0.00    +0.066 N 
ATOM      8  O   UNL     1      20.501   0.222  54.401  1.00  0.00    -0.258 OA
ATOM      9  O   UNL     1      20.958  -1.906  54.746  1.00  0.00    -0.258 OA
ENDBRANCH   1   7
BRANCH   6  10
ATOM     10  O   UNL     1      23.361  -1.906  56.014  1.00  0.00    -0.502 OA
ATOM     11  H   UNL     1      22.394  -1.994  56.090  1.00  0.00    +0.293 HD
ENDBRANCH   6  10
BRANCH   3  12
ATOM     12  C   UNL     1      24.668   1.604  51.762  1.00  0.00    -0.018 A 
ATOM     13  C   UNL     1      26.004   1.963  51.515  1.00  0.00    +0.009 A 
ATOM     14  C   UNL     1      23.675   2.150  50.931  1.00  0.00    +0.009 A 
ATOM     15  C   UNL     1      26.334   2.836  50.475  1.00  0.00    +0.001 A 
ATOM     16  C   UNL     1      24.004   3.025  49.892  1.00  0.00    +0.001 A 
ATOM     17  C   UNL     1      25.335   3.367  49.665  1.00  0.00    +0.000 A 
ENDBRANCH   3  12
TORSDOF 3
ENDMDL
MODEL 6
REMARK VINA RESULT:    -6.519      4.581      6.545
REMARK INTER + INTRA:          -8.055
REMARK INTER:                  -7.441
REMARK INTRA:                  -0.614
REMARK UNBOUND:                -0.583
REMARK SMILES O=[N+]([O-])c1cc(-c2ccccc2)ccc1O
REMARK SMILES IDX 4 1 5 2 6 3 13 4 14 5 15 6 2 7 1 8 3 9 16 10 7 12 8 13 12 14
REMARK SMILES IDX 9 15 11 16 10 17
REMARK H PARENT 16 11
ROOT
ATOM      1  C   UNL     1      20.859   0.237  52.750  1.00  0.00    +0.311 A 
ATOM      2  C   UNL     1      22.220   0.493  52.533  1.00  0.00    +0.098 A 
ATOM      3  C   UNL     1      23.187  -0.173  53.300  1.00  0.00    -0.011 A 
ATOM      4  C   UNL     1      22.745  -1.087  54.276  1.00  0.00    +0.013 A 
ATOM      5  C   UNL     1      21.381  -1.330  54.490  1.00  0.00    +0.054 A 
ATOM      6  C   UNL     1      20.430  -0.662  53.724  1.00  0.00    +0.194 A 
ENDROOT
BRANCH   1   7
ATOM      7  N   UNL     1      19.897   0.936  51.926  1.00  0.00    +0.066 N 
ATOM      8  O   UNL     1      19.860   2.170  52.037  1.00  0.00    -0.258 OA
ATOM      9  O   UNL     1      19.226   0.264  51.131  1.00  0.00    -0.258 OA
ENDBRANCH   1   7
BRANCH   6  10
ATOM     10  O   UNL     1      19.103  -0.871  53.951  1.00  0.00    -0.502 OA
ATOM     11  H   UNL     1      18.648  -0.020  54.077  1.00  0.00    +0.293 HD
ENDBRANCH   6  10
BRANCH   3  12
ATOM     12  C   UNL     1      24.622   0.077  53.091  1.00  0.00    -0.018 A 
ATOM     13  C   UNL     1      25.591  -0.558  53.887  1.00  0.00    +0.009 A 
ATOM     14  C   UNL     1      25.066   0.958  52.091  1.00  0.00    +0.009 A 
ATOM     15  C   UNL     1      26.954  -0.322  53.689  1.00  0.00    +0.001 A 
ATOM     16  C   UNL     1      26.429   1.197  51.893  1.00  0.00    +0.001 A 
ATOM     17  C   UNL     1      27.372   0.556  52.693  1.00  0.00    +0.000 A 
ENDBRANCH   3  12
TORSDOF 3
ENDMDL
MODEL 7
REMARK VINA RESULT:    -6.458      2.269      4.641
REMARK INTER + INTRA:          -7.984
REMARK INTER:                  -7.374
REMARK INTRA:                  -0.610
REMARK UNBOUND:                -0.583
REMARK SMILES O=[N+]([O-])c1cc(-c2ccccc2)ccc1O
REMARK SMILES IDX 4 1 5 2 6 3 13 4 14 5 15 6 2 7 1 8 3 9 16 10 7 12 8 13 12 14
REMARK SMILES IDX 9 15 11 16 10 17
REMARK H PARENT 16 11
ROOT
ATOM      1  C   UNL     1      26.591   0.362  53.699  1.00  0.00    +0.311 A 
ATOM      2  C   UNL     1      26.613   1.348  52.702  1.00  0.00    +0.098 A 
ATOM      3  C   UNL     1      25.422   1.717  52.059  1.00  0.00    -0.011 A 
ATOM      4  C   UNL     1      24.233   1.070  52.445  1.00  0.00    +0.013 A 
ATOM      5  C   UNL     1      24.224   0.079  53.437  1.00  0.00    +0.054 A 
ATOM      6  C   UNL     1      25.411  -0.280  54.067  1.00  0.00    +0.194 A 
ENDROOT
BRANCH   1   7
ATOM      7  N   UNL     1      27.841   0.023  54.345  1.00  0.00    +0.066 N 
ATOM      8  O   UNL     1      28.316  -1.093  54.090  1.00  0.00    -0.258 OA
ATOM      9  O   UNL     1      28.373   0.888  55.054  1.00  0.00    -0.258 OA
ENDBRANCH   1   7
BRANCH   6  10
ATOM     10  O   UNL     1      25.412  -1.265  55.009  1.00  0.00    -0.502 OA
ATOM     11  H   UNL     1      26.290  -1.326  55.426  1.00  0.00    +0.293 HD
ENDBRANCH   6  10
BRANCH   3  12
ATOM     12  C   UNL     1      25.417   2.749  51.011  1.00  0.00    -0.018 A 
ATOM     13  C   UNL     1      26.604   3.127  50.360  1.00  0.00    +0.009 A 
ATOM     14  C   UNL     1      24.225   3.389  50.630  1.00  0.00    +0.009 A 
ATOM     15  C   UNL     1      26.600   4.108  49.365  1.00  0.00    +0.001 A 
ATOM     16  C   UNL     1      24.220   4.371  49.636  1.00  0.00    +0.001 A 
ATOM     17  C   UNL     1      25.408   4.730  49.004  1.00  0.00    +0.000 A 
ENDBRANCH   3  12
TORSDOF 3
ENDMDL
MODEL 8
REMARK VINA RESULT:    -6.380      3.404      5.743
REMARK INTER + INTRA:          -7.895
REMARK INTER:                  -7.292
REMARK INTRA:                  -0.603
REMARK UNBOUND:                -0.583
REMARK SMILES O=[N+]([O-])c1cc(-c2ccccc2)ccc1O
REMARK SMILES IDX 4 1 5 2 6 3 13 4 14 5 15 6 2 7 1 8 3 9 16 10 7 12 8 13 12 14
REMARK SMILES IDX 9 15 11 16 10 17
REMARK H PARENT 16 11
ROOT
ATOM      1  C   UNL     1      24.006   1.870  52.812  1.00  0.00    +0.311 A 
ATOM      2  C   UNL     1      25.368   1.550  52.898  1.00  0.00    +0.098 A 
ATOM      3  C   UNL     1      25.760   0.253  53.263  1.00  0.00    -0.011 A 
ATOM      4  C   UNL     1      24.752  -0.691  53.536  1.00  0.00    +0.013 A 
ATOM      5  C   UNL     1      23.392  -0.358  53.455  1.00  0.00    +0.054 A 
ATOM      6  C   UNL     1      23.015   0.932  53.094  1.00  0.00    +0.194 A 
ENDROOT
BRANCH   1   7
ATOM      7  N   UNL     1      23.649   3.215  52.418  1.00  0.00    +0.066 N 
ATOM      8  O   UNL     1      23.987   4.129  53.183  1.00  0.00    -0.258 OA
ATOM      9  O   UNL     1      23.088   3.362  51.323  1.00  0.00    -0.258 OA
ENDBRANCH   1   7
BRANCH   6  10
ATOM     10  O   UNL     1      21.696   1.268  53.046  1.00  0.00    -0.502 OA
ATOM     11  H   UNL     1      21.557   2.133  53.469  1.00  0.00    +0.293 HD
ENDBRANCH   6  10
BRANCH   3  12
ATOM     12  C   UNL     1      27.183  -0.109  53.359  1.00  0.00    -0.018 A 
ATOM     13  C   UNL     1      28.145   0.835  53.758  1.00  0.00    +0.009 A 
ATOM     14  C   UNL     1      27.623  -1.408  53.052  1.00  0.00    +0.009 A 
ATOM     15  C   UNL     1      29.496   0.491  53.849  1.00  0.00    +0.001 A 
ATOM     16  C   UNL     1      28.974  -1.752  53.141  1.00  0.00    +0.001 A 
ATOM     17  C   UNL     1      29.910  -0.801  53.540  1.00  0.00    +0.000 A 
ENDBRANCH   3  12
TORSDOF 3
ENDMDL
MODEL 9
REMARK VINA RESULT:    -6.357      2.886      3.950
REMARK INTER + INTRA:          -7.869
REMARK INTER:                  -7.255
REMARK INTRA:                  -0.614
REMARK UNBOUND:                -0.583
REMARK SMILES O=[N+]([O-])c1cc(-c2ccccc2)ccc1O
REMARK SMILES IDX 4 1 5 2 6 3 13 4 14 5 15 6 2 7 1 8 3 9 16 10 7 12 8 13 12 14
REMARK SMILES IDX 9 15 11 16 10 17
REMARK H PARENT 16 11
ROOT
ATOM      1  C   UNL     1      24.924   2.947  51.358  1.00  0.00    +0.311 A 
ATOM      2  C   UNL     1      23.870   2.191  51.891  1.00  0.00    +0.098 A 
ATOM      3  C   UNL     1      24.145   1.023  52.617  1.00  0.00    -0.011 A 
ATOM      4  C   UNL     1      25.492   0.649  52.784  1.00  0.00    +0.013 A 
ATOM      5  C   UNL     1      26.538   1.408  52.240  1.00  0.00    +0.054 A 
ATOM      6  C   UNL     1      26.253   2.563  51.519  1.00  0.00    +0.194 A 
ENDROOT
BRANCH   1   7
ATOM      7  N   UNL     1      24.594   4.151  50.628  1.00  0.00    +0.066 N 
ATOM      8  O   UNL     1      24.810   4.141  49.407  1.00  0.00    -0.258 OA
ATOM      9  O   UNL     1      24.067   5.078  51.258  1.00  0.00    -0.258 OA
ENDBRANCH   1   7
BRANCH   6  10
ATOM     10  O   UNL     1      27.265   3.286  50.961  1.00  0.00    -0.502 OA
ATOM     11  H   UNL     1      28.068   2.739  50.899  1.00  0.00    +0.293 HD
ENDBRANCH   6  10
BRANCH   3  12
ATOM     12  C   UNL     1      23.057   0.214  53.188  1.00  0.00    -0.018 A 
ATOM     13  C   UNL     1      23.320  -0.779  54.148  1.00  0.00    +0.009 A 
ATOM     14  C   UNL     1      21.723   0.407  52.790  1.00  0.00    +0.009 A 
ATOM     15  C   UNL     1      22.288  -1.548  54.691  1.00  0.00    +0.001 A 
ATOM     16  C   UNL     1      20.690  -0.363  53.331  1.00  0.00    +0.001 A 
ATOM     17  C   UNL     1      20.974  -1.340  54.282  1.00  0.00    +0.000 A 
ENDBRANCH   3  12
TORSDOF 3
ENDMDL
