MODEL 1
REMARK VINA RESULT:    -5.871      0.000      0.000
REMARK INTER + INTRA:          -8.233
REMARK INTER:                  -7.759
REMARK INTRA:                  -0.473
REMARK UNBOUND:                -0.473
REMARK SMILES C[N+](C)(C)C[C@@H](O)COc1ccc(C#N)cc1F
REMARK SMILES IDX 6 1 5 2 2 3 1 4 3 5 4 6 7 7 8 9 9 10 10 11 11 12 17 13 12 14
REMARK SMILES IDX 16 15 13 16 14 17 15 18 18 19
REMARK H PARENT 7 8
ROOT
ATOM      1  C   UNL     1      25.410   1.854  53.479  1.00  0.00    +0.206 C 
ENDROOT
BRANCH   1   2
ATOM      2  C   UNL     1      26.923   1.703  53.183  1.00  0.00    +0.299 C 
BRANCH   2   3
ATOM      3  N   UNL     1      27.702   0.523  53.833  1.00  0.00    -0.329 N 
ATOM      4  C   UNL     1      29.151   0.897  54.154  1.00  0.00    +0.334 C 
ATOM      5  C   UNL     1      27.678  -0.743  52.987  1.00  0.00    +0.334 C 
ATOM      6  C   UNL     1      27.002   0.208  55.167  1.00  0.00    +0.334 C 
ENDBRANCH   2   3
ENDBRANCH   1   2
BRANCH   1   7
ATOM      7  O   UNL     1      25.034   3.236  53.556  1.00  0.00    -0.384 OA
ATOM      8  H   UNL     1      24.093   3.251  53.830  1.00  0.00    +0.211 HD
ENDBRANCH   1   7
BRANCH   1   9
ATOM      9  C   UNL     1      24.486   1.106  52.513  1.00  0.00    +0.267 C 
BRANCH   9  10
ATOM     10  O   UNL     1      24.147  -0.150  53.131  1.00  0.00    -0.488 OA
BRANCH  10  11
ATOM     11  C   UNL     1      22.802  -0.372  53.270  1.00  0.00    +0.155 A 
ATOM     12  C   UNL     1      21.984   0.219  52.302  1.00  0.00    +0.051 A 
ATOM     13  C   UNL     1      22.214  -1.087  54.317  1.00  0.00    +0.166 A 
ATOM     14  C   UNL     1      20.592   0.056  52.359  1.00  0.00    +0.023 A 
ATOM     15  C   UNL     1      20.830  -1.245  54.390  1.00  0.00    +0.062 A 
ATOM     16  C   UNL     1      20.014  -0.687  53.399  1.00  0.00    +0.055 A 
ATOM     17  C   UNL     1      18.599  -0.901  53.447  1.00  0.00    +0.099 C 
ATOM     18  N   UNL     1      17.456  -1.109  53.480  1.00  0.00    -0.192 NA
ATOM     19  F   UNL     1      22.957  -1.610  55.306  1.00  0.00    -0.203 F 
ENDBRANCH  10  11
ENDBRANCH   9  10
ENDBRANCH   1   9
TORSDOF 6
ENDMDL
MODEL 2
REMARK VINA RESULT:    -5.711      1.344      1.773
REMARK INTER + INTRA:          -8.021
REMARK INTER:                  -7.568
REMARK INTRA:                  -0.453
REMARK UNBOUND:                -0.473
REMARK SMILES C[N+](C)(C)C[C@@H](O)COc1ccc(C#N)cc1F
REMARK SMILES IDX 6 1 5 2 2 3 1 4 3 5 4 6 7 7 8 9 9 10 10 11 11 12 17 13 12 14
REMARK SMILES IDX 16 15 13 16 14 17 15 18 18 19
REMARK H PARENT 7 8
ROOT
ATOM      1  C   UNL     1      25.488  -0.617  54.663  1.00  0.00    +0.206 C 
ENDROOT
BRANCH   1   2
ATOM      2  C   UNL     1      26.732   0.263  54.939  1.00  0.00    +0.299 C 
BRANCH   2   3
ATOM      3  N   UNL     1      27.844   0.357  53.854  1.00  0.00    -0.329 N 
ATOM      4  C   UNL     1      27.543   1.439  52.814  1.00  0.00    +0.334 C 
ATOM      5  C   UNL     1      28.101  -0.969  53.150  1.00  0.00    +0.334 C 
ATOM      6  C   UNL     1      29.140   0.762  54.578  1.00  0.00    +0.334 C 
ENDBRANCH   2   3
ENDBRANCH   1   2
BRANCH   1   7
ATOM      7  O   UNL     1      25.030  -1.255  55.862  1.00  0.00    -0.384 OA
ATOM      8  H   UNL     1      25.086  -2.221  55.700  1.00  0.00    +0.211 HD
ENDBRANCH   1   7
BRANCH   1   9
ATOM      9  C   UNL     1      24.329   0.105  53.969  1.00  0.00    +0.267 C 
BRANCH   9  10
ATOM     10  O   UNL     1      23.699  -0.844  53.088  1.00  0.00    -0.488 OA
BRANCH  10  11
ATOM     11  C   UNL     1      22.331  -0.870  53.163  1.00  0.00    +0.155 A 
ATOM     12  C   UNL     1      21.654  -0.054  52.251  1.00  0.00    +0.051 A 
ATOM     13  C   UNL     1      21.597  -1.601  54.101  1.00  0.00    +0.166 A 
ATOM     14  C   UNL     1      20.253  -0.007  52.251  1.00  0.00    +0.023 A 
ATOM     15  C   UNL     1      20.203  -1.552  54.117  1.00  0.00    +0.062 A 
ATOM     16  C   UNL     1      19.525  -0.766  53.179  1.00  0.00    +0.055 A 
ATOM     17  C   UNL     1      18.092  -0.764  53.164  1.00  0.00    +0.099 C 
ATOM     18  N   UNL     1      16.931  -0.797  53.141  1.00  0.00    -0.192 NA
ATOM     19  F   UNL     1      22.208  -2.341  55.040  1.00  0.00    -0.203 F 
ENDBRANCH  10  11
ENDBRANCH   9  10
ENDBRANCH   1   9
TORSDOF 6
ENDMDL
MODEL 3
REMARK VINA RESULT:    -5.698      1.764      2.278
REMARK INTER + INTRA:          -8.003
REMARK INTER:                  -7.585
REMARK INTRA:                  -0.418
REMARK UNBOUND:                -0.473
REMARK SMILES C[N+](C)(C)C[C@@H](O)COc1ccc(C#N)cc1F
REMARK SMILES IDX 6 1 5 2 2 3 1 4 3 5 4 6 7 7 8 9 9 10 10 11 11 12 17 13 12 14
REMARK SMILES IDX 16 15 13 16 14 17 15 18 18 19
REMARK H PARENT 7 8
ROOT
ATOM      1  C   UNL     1      27.046   2.125  52.856  1.00  0.00    +0.206 C 
ENDROOT
BRANCH   1   2
ATOM      2  C   UNL     1      27.854   0.803  52.849  1.00  0.00    +0.299 C 
BRANCH   2   3
ATOM      3  N   UNL     1      28.820   0.507  54.033  1.00  0.00    -0.329 N 
ATOM      4  C   UNL     1      29.545   1.766  54.513  1.00  0.00    +0.334 C 
ATOM      5  C   UNL     1      29.839  -0.577  53.712  1.00  0.00    +0.334 C 
ATOM      6  C   UNL     1      27.951   0.003  55.200  1.00  0.00    +0.334 C 
ENDBRANCH   2   3
ENDBRANCH   1   2
BRANCH   1   7
ATOM      7  O   UNL     1      27.272   2.875  51.655  1.00  0.00    -0.384 OA
ATOM      8  H   UNL     1      26.591   3.581  51.638  1.00  0.00    +0.211 HD
ENDBRANCH   1   7
BRANCH   1   9
ATOM      9  C   UNL     1      25.543   1.960  53.104  1.00  0.00    +0.267 C 
BRANCH   9  10
ATOM     10  O   UNL     1      25.176   0.643  52.653  1.00  0.00    -0.488 OA
BRANCH  10  11
ATOM     11  C   UNL     1      23.835   0.370  52.726  1.00  0.00    +0.155 A 
ATOM     12  C   UNL     1      23.437  -0.448  53.789  1.00  0.00    +0.051 A 
ATOM     13  C   UNL     1      22.879   0.802  51.803  1.00  0.00    +0.166 A 
ATOM     14  C   UNL     1      22.087  -0.790  53.949  1.00  0.00    +0.023 A 
ATOM     15  C   UNL     1      21.536   0.458  51.946  1.00  0.00    +0.062 A 
ATOM     16  C   UNL     1      21.132  -0.327  53.032  1.00  0.00    +0.055 A 
ATOM     17  C   UNL     1      19.743  -0.630  53.206  1.00  0.00    +0.099 C 
ATOM     18  N   UNL     1      18.610  -0.842  53.353  1.00  0.00    -0.192 NA
ATOM     19  F   UNL     1      23.229   1.529  50.730  1.00  0.00    -0.203 F 
ENDBRANCH  10  11
ENDBRANCH   9  10
ENDBRANCH   1   9
TORSDOF 6
ENDMDL
MODEL 4
REMARK VINA RESULT:    -5.507      3.527      6.382
REMARK INTER + INTRA:          -7.751
REMARK INTER:                  -7.314
REMARK INTRA:                  -0.437
REMARK UNBOUND:                -0.473
REMARK SMILES C[N+](C)(C)C[C@@H](O)COc1ccc(C#N)cc1F
REMARK SMILES IDX 6 1 5 2 2 3 1 4 3 5 4 6 7 7 8 9 9 10 10 11 11 12 17 13 12 14
REMARK SMILES IDX 16 15 13 16 14 17 15 18 18 19
REMARK H PARENT 7 8
ROOT
ATOM      1  C   UNL     1      23.484   4.665  52.145  1.00  0.00    +0.206 C 
ENDROOT
BRANCH   1   2
ATOM      2  C   UNL     1      21.944   4.825  52.156  1.00  0.00    +0.299 C 
BRANCH   2   3
ATOM      3  N   UNL     1      21.184   4.876  50.798  1.00  0.00    -0.329 N 
ATOM      4  C   UNL     1      20.938   6.313  50.330  1.00  0.00    +0.334 C 
ATOM      5  C   UNL     1      19.865   4.116  50.825  1.00  0.00    +0.334 C 
ATOM      6  C   UNL     1      22.092   4.201  49.754  1.00  0.00    +0.334 C 
ENDBRANCH   2   3
ENDBRANCH   1   2
BRANCH   1   7
ATOM      7  O   UNL     1      24.133   5.896  52.493  1.00  0.00    -0.384 OA
ATOM      8  H   UNL     1      24.321   6.358  51.648  1.00  0.00    +0.211 HD
ENDBRANCH   1   7
BRANCH   1   9
ATOM      9  C   UNL     1      24.020   3.520  53.009  1.00  0.00    +0.267 C 
BRANCH   9  10
ATOM     10  O   UNL     1      23.584   2.287  52.406  1.00  0.00    -0.488 OA
BRANCH  10  11
ATOM     11  C   UNL     1      24.452   1.239  52.561  1.00  0.00    +0.155 A 
ATOM     12  C   UNL     1      25.628   1.305  51.807  1.00  0.00    +0.051 A 
ATOM     13  C   UNL     1      24.217   0.118  53.362  1.00  0.00    +0.166 A 
ATOM     14  C   UNL     1      26.579   0.278  51.892  1.00  0.00    +0.023 A 
ATOM     15  C   UNL     1      25.150  -0.914  53.444  1.00  0.00    +0.062 A 
ATOM     16  C   UNL     1      26.345  -0.829  52.721  1.00  0.00    +0.055 A 
ATOM     17  C   UNL     1      27.326  -1.865  52.853  1.00  0.00    +0.099 C 
ATOM     18  N   UNL     1      28.126  -2.695  52.994  1.00  0.00    -0.192 NA
ATOM     19  F   UNL     1      23.070  -0.019  54.046  1.00  0.00    -0.203 F 
ENDBRANCH  10  11
ENDBRANCH   9  10
ENDBRANCH   1   9
TORSDOF 6
ENDMDL
MODEL 5
REMARK VINA RESULT:    -5.410      3.274      6.005
REMARK INTER + INTRA:          -7.623
REMARK INTER:                  -7.024
REMARK INTRA:                  -0.599
REMARK UNBOUND:                -0.473
REMARK SMILES C[N+](C)(C)C[C@@H](O)COc1ccc(C#N)cc1F
REMARK SMILES IDX 6 1 5 2 2 3 1 4 3 5 4 6 7 7 8 9 9 10 10 11 11 12 17 13 12 14
REMARK SMILES IDX 16 15 13 16 14 17 15 18 18 19
REMARK H PARENT 7 8
ROOT
ATOM      1  C   UNL     1      21.201   2.862  52.182  1.00  0.00    +0.206 C 
ENDROOT
BRANCH   1   2
ATOM      2  C   UNL     1      21.355   3.334  50.715  1.00  0.00    +0.299 C 
BRANCH   2   3
ATOM      3  N   UNL     1      22.481   4.352  50.368  1.00  0.00    -0.329 N 
ATOM      4  C   UNL     1      23.186   4.879  51.620  1.00  0.00    +0.334 C 
ATOM      5  C   UNL     1      21.987   5.523  49.531  1.00  0.00    +0.334 C 
ATOM      6  C   UNL     1      23.528   3.590  49.536  1.00  0.00    +0.334 C 
ENDBRANCH   2   3
ENDBRANCH   1   2
BRANCH   1   7
ATOM      7  O   UNL     1      19.941   3.276  52.728  1.00  0.00    -0.384 OA
ATOM      8  H   UNL     1      19.702   4.109  52.269  1.00  0.00    +0.211 HD
ENDBRANCH   1   7
BRANCH   1   9
ATOM      9  C   UNL     1      21.406   1.360  52.401  1.00  0.00    +0.267 C 
BRANCH   9  10
ATOM     10  O   UNL     1      22.632   0.994  51.740  1.00  0.00    -0.488 OA
BRANCH  10  11
ATOM     11  C   UNL     1      23.681   0.745  52.585  1.00  0.00    +0.155 A 
ATOM     12  C   UNL     1      24.743   1.653  52.524  1.00  0.00    +0.051 A 
ATOM     13  C   UNL     1      23.775  -0.356  53.441  1.00  0.00    +0.166 A 
ATOM     14  C   UNL     1      25.866   1.483  53.345  1.00  0.00    +0.023 A 
ATOM     15  C   UNL     1      24.893  -0.541  54.253  1.00  0.00    +0.062 A 
ATOM     16  C   UNL     1      25.937   0.390  54.220  1.00  0.00    +0.055 A 
ATOM     17  C   UNL     1      27.057   0.226  55.098  1.00  0.00    +0.099 C 
ATOM     18  N   UNL     1      27.944   0.099  55.837  1.00  0.00    -0.192 NA
ATOM     19  F   UNL     1      22.811  -1.290  53.480  1.00  0.00    -0.203 F 
ENDBRANCH  10  11
ENDBRANCH   9  10
ENDBRANCH   1   9
TORSDOF 6
ENDMDL
MODEL 6
REMARK VINA RESULT:    -5.380      1.991      2.504
REMARK INTER + INTRA:          -7.583
REMARK INTER:                  -7.075
REMARK INTRA:                  -0.508
REMARK UNBOUND:                -0.473
REMARK SMILES C[N+](C)(C)C[C@@H](O)COc1ccc(C#N)cc1F
REMARK SMILES IDX 6 1 5 2 2 3 1 4 3 5 4 6 7 7 8 9 9 10 10 11 11 12 17 13 12 14
REMARK SMILES IDX 16 15 13 16 14 17 15 18 18 19
REMARK H PARENT 7 8
ROOT
ATOM      1  C   UNL     1      25.515   1.988  52.852  1.00  0.00    +0.206 C 
ENDROOT
BRANCH   1   2
ATOM      2  C   UNL     1      25.894   0.560  52.389  1.00  0.00    +0.299 C 
BRANCH   2   3
ATOM      3  N   UNL     1      26.402  -0.463  53.447  1.00  0.00    -0.329 N 
ATOM      4  C   UNL     1      26.952  -1.736  52.798  1.00  0.00    +0.334 C 
ATOM      5  C   UNL     1      25.342  -0.832  54.475  1.00  0.00    +0.334 C 
ATOM      6  C   UNL     1      27.566   0.211  54.195  1.00  0.00    +0.334 C 
ENDBRANCH   2   3
ENDBRANCH   1   2
BRANCH   1   7
ATOM      7  O   UNL     1      26.310   2.976  52.184  1.00  0.00    -0.384 OA
ATOM      8  H   UNL     1      25.703   3.712  51.955  1.00  0.00    +0.211 HD
ENDBRANCH   1   7
BRANCH   1   9
ATOM      9  C   UNL     1      24.027   2.333  52.728  1.00  0.00    +0.267 C 
BRANCH   9  10
ATOM     10  O   UNL     1      23.478   1.496  51.693  1.00  0.00    -0.488 OA
BRANCH  10  11
ATOM     11  C   UNL     1      22.250   0.962  51.984  1.00  0.00    +0.155 A 
ATOM     12  C   UNL     1      22.031   0.632  53.326  1.00  0.00    +0.051 A 
ATOM     13  C   UNL     1      21.254   0.689  51.043  1.00  0.00    +0.166 A 
ATOM     14  C   UNL     1      20.807   0.076  53.725  1.00  0.00    +0.023 A 
ATOM     15  C   UNL     1      20.038   0.125  51.428  1.00  0.00    +0.062 A 
ATOM     16  C   UNL     1      19.804  -0.168  52.776  1.00  0.00    +0.055 A 
ATOM     17  C   UNL     1      18.532  -0.695  53.173  1.00  0.00    +0.099 C 
ATOM     18  N   UNL     1      17.486  -1.091  53.487  1.00  0.00    -0.192 NA
ATOM     19  F   UNL     1      21.449   0.924  49.736  1.00  0.00    -0.203 F 
ENDBRANCH  10  11
ENDBRANCH   9  10
ENDBRANCH   1   9
TORSDOF 6
ENDMDL
MODEL 7
REMARK VINA RESULT:    -5.315      4.198      5.592
REMARK INTER + INTRA:          -7.498
REMARK INTER:                  -6.907
REMARK INTRA:                  -0.591
REMARK UNBOUND:                -0.473
REMARK SMILES C[N+](C)(C)C[C@@H](O)COc1ccc(C#N)cc1F
REMARK SMILES IDX 6 1 5 2 2 3 1 4 3 5 4 6 7 7 8 9 9 10 10 11 11 12 17 13 12 14
REMARK SMILES IDX 16 15 13 16 14 17 15 18 18 19
REMARK H PARENT 7 8
ROOT
ATOM      1  C   UNL     1      24.536   4.674  50.320  1.00  0.00    +0.206 C 
ENDROOT
BRANCH   1   2
ATOM      2  C   UNL     1      23.384   5.184  51.221  1.00  0.00    +0.299 C 
BRANCH   2   3
ATOM      3  N   UNL     1      22.056   5.646  50.554  1.00  0.00    -0.329 N 
ATOM      4  C   UNL     1      22.094   5.494  49.032  1.00  0.00    +0.334 C 
ATOM      5  C   UNL     1      21.676   7.076  50.914  1.00  0.00    +0.334 C 
ATOM      6  C   UNL     1      20.947   4.719  51.082  1.00  0.00    +0.334 C 
ENDBRANCH   2   3
ENDBRANCH   1   2
BRANCH   1   7
ATOM      7  O   UNL     1      25.725   5.451  50.513  1.00  0.00    -0.384 OA
ATOM      8  H   UNL     1      25.730   6.131  49.806  1.00  0.00    +0.211 HD
ENDBRANCH   1   7
BRANCH   1   9
ATOM      9  C   UNL     1      24.849   3.181  50.456  1.00  0.00    +0.267 C 
BRANCH   9  10
ATOM     10  O   UNL     1      23.614   2.465  50.270  1.00  0.00    -0.488 OA
BRANCH  10  11
ATOM     11  C   UNL     1      23.312   1.582  51.273  1.00  0.00    +0.155 A 
ATOM     12  C   UNL     1      24.339   1.324  52.188  1.00  0.00    +0.051 A 
ATOM     13  C   UNL     1      22.097   0.905  51.403  1.00  0.00    +0.166 A 
ATOM     14  C   UNL     1      24.131   0.430  53.248  1.00  0.00    +0.023 A 
ATOM     15  C   UNL     1      21.884   0.004  52.447  1.00  0.00    +0.062 A 
ATOM     16  C   UNL     1      22.898  -0.223  53.385  1.00  0.00    +0.055 A 
ATOM     17  C   UNL     1      22.654  -1.105  54.487  1.00  0.00    +0.099 C 
ATOM     18  N   UNL     1      22.433  -1.797  55.394  1.00  0.00    -0.192 NA
ATOM     19  F   UNL     1      21.110   1.068  50.507  1.00  0.00    -0.203 F 
ENDBRANCH  10  11
ENDBRANCH   9  10
ENDBRANCH   1   9
TORSDOF 6
ENDMDL
MODEL 8
REMARK VINA RESULT:    -5.272      3.825      6.321
REMARK INTER + INTRA:          -7.441
REMARK INTER:                  -6.876
REMARK INTRA:                  -0.565
REMARK UNBOUND:                -0.473
REMARK SMILES C[N+](C)(C)C[C@@H](O)COc1ccc(C#N)cc1F
REMARK SMILES IDX 6 1 5 2 2 3 1 4 3 5 4 6 7 7 8 9 9 10 10 11 11 12 17 13 12 14
REMARK SMILES IDX 16 15 13 16 14 17 15 18 18 19
REMARK H PARENT 7 8
ROOT
ATOM      1  C   UNL     1      23.215   4.597  51.978  1.00  0.00    +0.206 C 
ENDROOT
BRANCH   1   2
ATOM      2  C   UNL     1      22.317   4.039  50.846  1.00  0.00    +0.299 C 
BRANCH   2   3
ATOM      3  N   UNL     1      22.830   4.105  49.378  1.00  0.00    -0.329 N 
ATOM      4  C   UNL     1      21.859   4.856  48.463  1.00  0.00    +0.334 C 
ATOM      5  C   UNL     1      23.128   2.733  48.789  1.00  0.00    +0.334 C 
ATOM      6  C   UNL     1      24.148   4.901  49.403  1.00  0.00    +0.334 C 
ENDBRANCH   2   3
ENDBRANCH   1   2
BRANCH   1   7
ATOM      7  O   UNL     1      22.492   5.522  52.801  1.00  0.00    -0.384 OA
ATOM      8  H   UNL     1      23.082   5.741  53.554  1.00  0.00    +0.211 HD
ENDBRANCH   1   7
BRANCH   1   9
ATOM      9  C   UNL     1      23.894   3.533  52.846  1.00  0.00    +0.267 C 
BRANCH   9  10
ATOM     10  O   UNL     1      23.479   2.247  52.350  1.00  0.00    -0.488 OA
BRANCH  10  11
ATOM     11  C   UNL     1      24.443   1.275  52.412  1.00  0.00    +0.155 A 
ATOM     12  C   UNL     1      24.209   0.242  53.326  1.00  0.00    +0.051 A 
ATOM     13  C   UNL     1      25.632   1.280  51.679  1.00  0.00    +0.166 A 
ATOM     14  C   UNL     1      25.138  -0.798  53.469  1.00  0.00    +0.023 A 
ATOM     15  C   UNL     1      26.569   0.256  51.822  1.00  0.00    +0.062 A 
ATOM     16  C   UNL     1      26.316  -0.797  52.707  1.00  0.00    +0.055 A 
ATOM     17  C   UNL     1      27.254  -1.875  52.808  1.00  0.00    +0.099 C 
ATOM     18  N   UNL     1      28.007  -2.758  52.857  1.00  0.00    -0.192 NA
ATOM     19  F   UNL     1      25.929   2.288  50.843  1.00  0.00    -0.203 F 
ENDBRANCH  10  11
ENDBRANCH   9  10
ENDBRANCH   1   9
TORSDOF 6
ENDMDL
MODEL 9
REMARK VINA RESULT:    -5.193      4.386      5.850
REMARK INTER + INTRA:          -7.336
REMARK INTER:                  -6.844
REMARK INTRA:                  -0.492
REMARK UNBOUND:                -0.473
REMARK SMILES C[N+](C)(C)C[C@@H](O)COc1ccc(C#N)cc1F
REMARK SMILES IDX 6 1 5 2 2 3 1 4 3 5 4 6 7 7 8 9 9 10 10 11 11 12 17 13 12 14
REMARK SMILES IDX 16 15 13 16 14 17 15 18 18 19
REMARK H PARENT 7 8
ROOT
ATOM      1  C   UNL     1      23.663   5.578  51.313  1.00  0.00    +0.206 C 
ENDROOT
BRANCH   1   2
ATOM      2  C   UNL     1      22.120   5.683  51.389  1.00  0.00    +0.299 C 
BRANCH   2   3
ATOM      3  N   UNL     1      21.319   5.937  50.078  1.00  0.00    -0.329 N 
ATOM      4  C   UNL     1      20.059   5.071  49.998  1.00  0.00    +0.334 C 
ATOM      5  C   UNL     1      22.155   5.739  48.821  1.00  0.00    +0.334 C 
ATOM      6  C   UNL     1      20.864   7.407  50.112  1.00  0.00    +0.334 C 
ENDBRANCH   2   3
ENDBRANCH   1   2
BRANCH   1   7
ATOM      7  O   UNL     1      24.290   6.577  52.129  1.00  0.00    -0.384 OA
ATOM      8  H   UNL     1      24.647   7.252  51.514  1.00  0.00    +0.211 HD
ENDBRANCH   1   7
BRANCH   1   9
ATOM      9  C   UNL     1      24.232   4.194  51.639  1.00  0.00    +0.267 C 
BRANCH   9  10
ATOM     10  O   UNL     1      23.341   3.218  51.065  1.00  0.00    -0.488 OA
BRANCH  10  11
ATOM     11  C   UNL     1      23.088   2.137  51.867  1.00  0.00    +0.155 A 
ATOM     12  C   UNL     1      21.814   2.089  52.443  1.00  0.00    +0.051 A 
ATOM     13  C   UNL     1      24.014   1.137  52.177  1.00  0.00    +0.166 A 
ATOM     14  C   UNL     1      21.458   1.025  53.284  1.00  0.00    +0.023 A 
ATOM     15  C   UNL     1      23.675   0.081  53.022  1.00  0.00    +0.062 A 
ATOM     16  C   UNL     1      22.387   0.013  53.566  1.00  0.00    +0.055 A 
ATOM     17  C   UNL     1      22.026  -1.104  54.387  1.00  0.00    +0.099 C 
ATOM     18  N   UNL     1      21.735  -2.031  55.024  1.00  0.00    -0.192 NA
ATOM     19  F   UNL     1      25.270   1.182  51.704  1.00  0.00    -0.203 F 
ENDBRANCH  10  11
ENDBRANCH   9  10
ENDBRANCH   1   9
TORSDOF 6
ENDMDL
