MODEL 1
REMARK VINA RESULT:    -5.249      0.000      0.000
REMARK INTER + INTRA:          -8.432
REMARK INTER:                  -7.551
REMARK INTRA:                  -0.881
REMARK UNBOUND:                -0.881
REMARK SMILES C[N+](C)(C)C[C@@H](O)COc1ccc(SC2=NCCS2)cn1
REMARK SMILES IDX 8 1 6 2 5 3 2 4 1 5 3 6 4 7 7 8 9 10 10 11 11 12 21 13 12 14
REMARK SMILES IDX 20 15 13 16 14 17 15 18 16 19 19 20 17 21 18 22
REMARK H PARENT 7 9
ROOT
ATOM      1  C   UNL     1      24.465   5.288  50.380  1.00  0.00    +0.269 C 
ENDROOT
BRANCH   1   2
ATOM      2  C   UNL     1      24.016   6.640  50.953  1.00  0.00    +0.206 C 
BRANCH   2   3
ATOM      3  C   UNL     1      22.486   6.782  50.810  1.00  0.00    +0.299 C 
BRANCH   3   4
ATOM      4  N   UNL     1      22.016   7.675  49.627  1.00  0.00    -0.329 N 
ATOM      5  C   UNL     1      20.756   8.460  49.985  1.00  0.00    +0.334 C 
ATOM      6  C   UNL     1      23.106   8.642  49.193  1.00  0.00    +0.334 C 
ATOM      7  C   UNL     1      21.685   6.752  48.452  1.00  0.00    +0.334 C 
ENDBRANCH   3   4
ENDBRANCH   2   3
BRANCH   2   8
ATOM      8  O   UNL     1      24.388   6.704  52.338  1.00  0.00    -0.384 OA
ATOM      9  H   UNL     1      23.702   6.208  52.833  1.00  0.00    +0.211 HD
ENDBRANCH   2   8
ENDBRANCH   1   2
BRANCH   1  10
ATOM     10  O   UNL     1      23.370   4.377  50.539  1.00  0.00    -0.475 OA
BRANCH  10  11
ATOM     11  C   UNL     1      23.689   3.307  51.354  1.00  0.00    +0.213 A 
ATOM     12  C   UNL     1      23.244   2.060  50.944  1.00  0.00    +0.069 A 
ATOM     13  N   UNL     1      24.393   3.521  52.484  1.00  0.00    -0.221 NA
ATOM     14  C   UNL     1      23.544   0.955  51.738  1.00  0.00    +0.022 A 
ATOM     15  C   UNL     1      24.678   2.423  53.229  1.00  0.00    +0.130 A 
ATOM     16  C   UNL     1      24.285   1.127  52.907  1.00  0.00    +0.033 A 
BRANCH  16  17
ATOM     17  S   UNL     1      24.670  -0.254  53.949  1.00  0.00    -0.062 SA
BRANCH  17  18
ATOM     18  C   UNL     1      26.390  -0.101  54.142  1.00  0.00    +0.129 C 
ATOM     19  N   UNL     1      26.976   0.173  55.260  1.00  0.00    -0.271 NA
ATOM     20  S   UNL     1      27.382  -0.303  52.726  1.00  0.00    -0.098 SA
ATOM     21  C   UNL     1      28.438   0.181  55.047  1.00  0.00    +0.155 C 
ATOM     22  C   UNL     1      28.752   0.479  53.589  1.00  0.00    +0.101 C 
ENDBRANCH  17  18
ENDBRANCH  16  17
ENDBRANCH  10  11
ENDBRANCH   1  10
TORSDOF 8
ENDMDL
MODEL 2
REMARK VINA RESULT:    -5.169      4.698      8.252
REMARK INTER + INTRA:          -8.316
REMARK INTER:                  -7.633
REMARK INTRA:                  -0.684
REMARK UNBOUND:                -0.881
REMARK SMILES C[N+](C)(C)C[C@@H](O)COc1ccc(SC2=NCCS2)cn1
REMARK SMILES IDX 8 1 6 2 5 3 2 4 1 5 3 6 4 7 7 8 9 10 10 11 11 12 21 13 12 14
REMARK SMILES IDX 20 15 13 16 14 17 15 18 16 19 19 20 17 21 18 22
REMARK H PARENT 7 9
ROOT
ATOM      1  C   UNL     1      25.060  -0.839  53.389  1.00  0.00    +0.269 C 
ENDROOT
BRANCH   1   2
ATOM      2  C   UNL     1      26.090   0.258  53.086  1.00  0.00    +0.206 C 
BRANCH   2   3
ATOM      3  C   UNL     1      27.490  -0.372  52.934  1.00  0.00    +0.299 C 
BRANCH   3   4
ATOM      4  N   UNL     1      28.611   0.304  53.775  1.00  0.00    -0.329 N 
ATOM      5  C   UNL     1      29.965  -0.363  53.541  1.00  0.00    +0.334 C 
ATOM      6  C   UNL     1      28.720   1.789  53.464  1.00  0.00    +0.334 C 
ATOM      7  C   UNL     1      28.247   0.139  55.252  1.00  0.00    +0.334 C 
ENDBRANCH   3   4
ENDBRANCH   2   3
BRANCH   2   8
ATOM      8  O   UNL     1      25.717   0.924  51.871  1.00  0.00    -0.384 OA
ATOM      9  H   UNL     1      26.524   0.965  51.317  1.00  0.00    +0.211 HD
ENDBRANCH   2   8
ENDBRANCH   1   2
BRANCH   1  10
ATOM     10  O   UNL     1      24.093  -0.276  54.284  1.00  0.00    -0.475 OA
BRANCH  10  11
ATOM     11  C   UNL     1      22.832  -0.205  53.723  1.00  0.00    +0.213 A 
ATOM     12  C   UNL     1      21.774  -0.611  54.520  1.00  0.00    +0.069 A 
ATOM     13  N   UNL     1      22.695   0.238  52.457  1.00  0.00    -0.221 NA
ATOM     14  C   UNL     1      20.486  -0.555  53.991  1.00  0.00    +0.022 A 
ATOM     15  C   UNL     1      21.427   0.290  51.976  1.00  0.00    +0.130 A 
ATOM     16  C   UNL     1      20.295  -0.088  52.692  1.00  0.00    +0.033 A 
BRANCH  16  17
ATOM     17  S   UNL     1      18.672  -0.019  51.982  1.00  0.00    -0.062 SA
BRANCH  17  18
ATOM     18  C   UNL     1      18.607   1.605  51.367  1.00  0.00    +0.129 C 
ATOM     19  N   UNL     1      18.832   2.662  52.076  1.00  0.00    -0.271 NA
ATOM     20  S   UNL     1      18.184   1.817  49.693  1.00  0.00    -0.098 SA
ATOM     21  C   UNL     1      18.727   3.854  51.209  1.00  0.00    +0.155 C 
ATOM     22  C   UNL     1      17.836   3.553  50.013  1.00  0.00    +0.101 C 
ENDBRANCH  17  18
ENDBRANCH  16  17
ENDBRANCH  10  11
ENDBRANCH   1  10
TORSDOF 8
ENDMDL
MODEL 3
REMARK VINA RESULT:    -5.122      3.352      7.532
REMARK INTER + INTRA:          -8.248
REMARK INTER:                  -7.476
REMARK INTRA:                  -0.772
REMARK UNBOUND:                -0.881
REMARK SMILES C[N+](C)(C)C[C@@H](O)COc1ccc(SC2=NCCS2)cn1
REMARK SMILES IDX 8 1 6 2 5 3 2 4 1 5 3 6 4 7 7 8 9 10 10 11 11 12 21 13 12 14
REMARK SMILES IDX 20 15 13 16 14 17 15 18 16 19 19 20 17 21 18 22
REMARK H PARENT 7 9
ROOT
ATOM      1  C   UNL     1      23.883  -0.220  54.086  1.00  0.00    +0.269 C 
ENDROOT
BRANCH   1   2
ATOM      2  C   UNL     1      25.183  -0.880  54.570  1.00  0.00    +0.206 C 
BRANCH   2   3
ATOM      3  C   UNL     1      26.273   0.196  54.757  1.00  0.00    +0.299 C 
BRANCH   3   4
ATOM      4  N   UNL     1      27.506   0.053  53.819  1.00  0.00    -0.329 N 
ATOM      5  C   UNL     1      28.806  -0.040  54.615  1.00  0.00    +0.334 C 
ATOM      6  C   UNL     1      27.379  -1.163  52.915  1.00  0.00    +0.334 C 
ATOM      7  C   UNL     1      27.571   1.307  52.945  1.00  0.00    +0.334 C 
ENDBRANCH   3   4
ENDBRANCH   2   3
BRANCH   2   8
ATOM      8  O   UNL     1      24.930  -1.545  55.816  1.00  0.00    -0.384 OA
ATOM      9  H   UNL     1      24.719  -0.843  56.468  1.00  0.00    +0.211 HD
ENDBRANCH   2   8
ENDBRANCH   1   2
BRANCH   1  10
ATOM     10  O   UNL     1      24.049   0.066  52.691  1.00  0.00    -0.475 OA
BRANCH  10  11
ATOM     11  C   UNL     1      23.662   1.353  52.367  1.00  0.00    +0.213 A 
ATOM     12  C   UNL     1      22.831   1.493  51.267  1.00  0.00    +0.069 A 
ATOM     13  N   UNL     1      24.105   2.386  53.112  1.00  0.00    -0.221 NA
ATOM     14  C   UNL     1      22.419   2.774  50.906  1.00  0.00    +0.022 A 
ATOM     15  C   UNL     1      23.676   3.619  52.741  1.00  0.00    +0.130 A 
ATOM     16  C   UNL     1      22.838   3.870  51.659  1.00  0.00    +0.033 A 
BRANCH  16  17
ATOM     17  S   UNL     1      22.346   5.515  51.219  1.00  0.00    -0.062 SA
BRANCH  17  18
ATOM     18  C   UNL     1      23.789   6.149  50.488  1.00  0.00    +0.129 C 
ATOM     19  N   UNL     1      24.551   7.039  51.034  1.00  0.00    -0.271 NA
ATOM     20  S   UNL     1      24.216   5.564  48.906  1.00  0.00    -0.098 SA
ATOM     21  C   UNL     1      25.699   7.301  50.141  1.00  0.00    +0.155 C 
ATOM     22  C   UNL     1      25.333   6.961  48.705  1.00  0.00    +0.101 C 
ENDBRANCH  17  18
ENDBRANCH  16  17
ENDBRANCH  10  11
ENDBRANCH   1  10
TORSDOF 8
ENDMDL
MODEL 4
REMARK VINA RESULT:    -5.079      4.600      7.795
REMARK INTER + INTRA:          -8.187
REMARK INTER:                  -7.627
REMARK INTRA:                  -0.561
REMARK UNBOUND:                -0.881
REMARK SMILES C[N+](C)(C)C[C@@H](O)COc1ccc(SC2=NCCS2)cn1
REMARK SMILES IDX 8 1 6 2 5 3 2 4 1 5 3 6 4 7 7 8 9 10 10 11 11 12 21 13 12 14
REMARK SMILES IDX 20 15 13 16 14 17 15 18 16 19 19 20 17 21 18 22
REMARK H PARENT 7 9
ROOT
ATOM      1  C   UNL     1      25.843   2.488  51.440  1.00  0.00    +0.269 C 
ENDROOT
BRANCH   1   2
ATOM      2  C   UNL     1      25.219   2.282  52.827  1.00  0.00    +0.206 C 
BRANCH   2   3
ATOM      3  C   UNL     1      26.307   1.836  53.825  1.00  0.00    +0.299 C 
BRANCH   3   4
ATOM      4  N   UNL     1      26.372   0.303  54.088  1.00  0.00    -0.329 N 
ATOM      5  C   UNL     1      26.660  -0.000  55.557  1.00  0.00    +0.334 C 
ATOM      6  C   UNL     1      25.082  -0.386  53.673  1.00  0.00    +0.334 C 
ATOM      7  C   UNL     1      27.521  -0.263  53.250  1.00  0.00    +0.334 C 
ENDBRANCH   3   4
ENDBRANCH   2   3
BRANCH   2   8
ATOM      8  O   UNL     1      24.632   3.517  53.261  1.00  0.00    -0.384 OA
ATOM      9  H   UNL     1      23.972   3.766  52.580  1.00  0.00    +0.211 HD
ENDBRANCH   2   8
ENDBRANCH   1   2
BRANCH   1  10
ATOM     10  O   UNL     1      24.995   3.395  50.725  1.00  0.00    -0.475 OA
BRANCH  10  11
ATOM     11  C   UNL     1      25.711   4.358  50.039  1.00  0.00    +0.213 A 
ATOM     12  C   UNL     1      26.832   3.924  49.349  1.00  0.00    +0.069 A 
ATOM     13  N   UNL     1      25.300   5.642  50.077  1.00  0.00    -0.221 NA
ATOM     14  C   UNL     1      27.581   4.863  48.644  1.00  0.00    +0.022 A 
ATOM     15  C   UNL     1      26.046   6.529  49.371  1.00  0.00    +0.130 A 
ATOM     16  C   UNL     1      27.184   6.200  48.642  1.00  0.00    +0.033 A 
BRANCH  16  17
ATOM     17  S   UNL     1      28.124   7.424  47.769  1.00  0.00    -0.062 SA
BRANCH  17  18
ATOM     18  C   UNL     1      29.425   7.747  48.874  1.00  0.00    +0.129 C 
ATOM     19  N   UNL     1      29.352   8.575  49.863  1.00  0.00    -0.271 NA
ATOM     20  S   UNL     1      30.932   6.918  48.609  1.00  0.00    -0.098 SA
ATOM     21  C   UNL     1      30.632   8.556  50.602  1.00  0.00    +0.155 C 
ATOM     22  C   UNL     1      31.757   8.101  49.685  1.00  0.00    +0.101 C 
ENDBRANCH  17  18
ENDBRANCH  16  17
ENDBRANCH  10  11
ENDBRANCH   1  10
TORSDOF 8
ENDMDL
MODEL 5
REMARK VINA RESULT:    -5.063      4.278      8.050
REMARK INTER + INTRA:          -8.164
REMARK INTER:                  -7.362
REMARK INTRA:                  -0.802
REMARK UNBOUND:                -0.881
REMARK SMILES C[N+](C)(C)C[C@@H](O)COc1ccc(SC2=NCCS2)cn1
REMARK SMILES IDX 8 1 6 2 5 3 2 4 1 5 3 6 4 7 7 8 9 10 10 11 11 12 21 13 12 14
REMARK SMILES IDX 20 15 13 16 14 17 15 18 16 19 19 20 17 21 18 22
REMARK H PARENT 7 9
ROOT
ATOM      1  C   UNL     1      25.086   1.992  51.515  1.00  0.00    +0.269 C 
ENDROOT
BRANCH   1   2
ATOM      2  C   UNL     1      25.490   1.975  52.997  1.00  0.00    +0.206 C 
BRANCH   2   3
ATOM      3  C   UNL     1      27.016   1.779  53.117  1.00  0.00    +0.299 C 
BRANCH   3   4
ATOM      4  N   UNL     1      27.457   0.445  53.786  1.00  0.00    -0.329 N 
ATOM      5  C   UNL     1      27.290  -0.739  52.835  1.00  0.00    +0.334 C 
ATOM      6  C   UNL     1      28.901   0.512  54.260  1.00  0.00    +0.334 C 
ATOM      7  C   UNL     1      26.554   0.214  54.999  1.00  0.00    +0.334 C 
ENDBRANCH   3   4
ENDBRANCH   2   3
BRANCH   2   8
ATOM      8  O   UNL     1      25.107   3.221  53.597  1.00  0.00    -0.384 OA
ATOM      9  H   UNL     1      25.926   3.618  53.960  1.00  0.00    +0.211 HD
ENDBRANCH   2   8
ENDBRANCH   1   2
BRANCH   1  10
ATOM     10  O   UNL     1      26.231   2.426  50.771  1.00  0.00    -0.475 OA
BRANCH  10  11
ATOM     11  C   UNL     1      26.063   3.687  50.231  1.00  0.00    +0.213 A 
ATOM     12  C   UNL     1      26.993   4.087  49.285  1.00  0.00    +0.069 A 
ATOM     13  N   UNL     1      25.032   4.452  50.643  1.00  0.00    -0.221 NA
ATOM     14  C   UNL     1      26.859   5.352  48.717  1.00  0.00    +0.022 A 
ATOM     15  C   UNL     1      24.923   5.674  50.062  1.00  0.00    +0.130 A 
ATOM     16  C   UNL     1      25.798   6.171  49.101  1.00  0.00    +0.033 A 
BRANCH  16  17
ATOM     17  S   UNL     1      25.606   7.792  48.410  1.00  0.00    -0.062 SA
BRANCH  17  18
ATOM     18  C   UNL     1      27.171   8.497  48.684  1.00  0.00    +0.129 C 
ATOM     19  N   UNL     1      28.061   8.674  47.764  1.00  0.00    -0.271 NA
ATOM     20  S   UNL     1      27.571   8.965  50.312  1.00  0.00    -0.098 SA
ATOM     21  C   UNL     1      29.242   9.332  48.360  1.00  0.00    +0.155 C 
ATOM     22  C   UNL     1      29.308   9.039  49.851  1.00  0.00    +0.101 C 
ENDBRANCH  17  18
ENDBRANCH  16  17
ENDBRANCH  10  11
ENDBRANCH   1  10
TORSDOF 8
ENDMDL
MODEL 6
REMARK VINA RESULT:    -5.040      5.482      8.747
REMARK INTER + INTRA:          -8.131
REMARK INTER:                  -7.601
REMARK INTRA:                  -0.530
REMARK UNBOUND:                -0.881
REMARK SMILES C[N+](C)(C)C[C@@H](O)COc1ccc(SC2=NCCS2)cn1
REMARK SMILES IDX 8 1 6 2 5 3 2 4 1 5 3 6 4 7 7 8 9 10 10 11 11 12 21 13 12 14
REMARK SMILES IDX 20 15 13 16 14 17 15 18 16 19 19 20 17 21 18 22
REMARK H PARENT 7 9
ROOT
ATOM      1  C   UNL     1      23.974  -0.075  53.552  1.00  0.00    +0.269 C 
ENDROOT
BRANCH   1   2
ATOM      2  C   UNL     1      25.050  -0.803  54.371  1.00  0.00    +0.206 C 
BRANCH   2   3
ATOM      3  C   UNL     1      26.207   0.168  54.686  1.00  0.00    +0.299 C 
BRANCH   3   4
ATOM      4  N   UNL     1      27.451   0.032  53.761  1.00  0.00    -0.329 N 
ATOM      5  C   UNL     1      28.745  -0.032  54.570  1.00  0.00    +0.334 C 
ATOM      6  C   UNL     1      27.351  -1.198  52.872  1.00  0.00    +0.334 C 
ATOM      7  C   UNL     1      27.506   1.275  52.871  1.00  0.00    +0.334 C 
ENDBRANCH   3   4
ENDBRANCH   2   3
BRANCH   2   8
ATOM      8  O   UNL     1      24.463  -1.279  55.591  1.00  0.00    -0.384 OA
ATOM      9  H   UNL     1      25.170  -1.762  56.069  1.00  0.00    +0.211 HD
ENDBRANCH   2   8
ENDBRANCH   1   2
BRANCH   1  10
ATOM     10  O   UNL     1      22.711  -0.359  54.167  1.00  0.00    -0.475 OA
BRANCH  10  11
ATOM     11  C   UNL     1      21.648  -0.164  53.306  1.00  0.00    +0.213 A 
ATOM     12  C   UNL     1      21.959   0.253  52.021  1.00  0.00    +0.069 A 
ATOM     13  N   UNL     1      20.391  -0.377  53.745  1.00  0.00    -0.221 NA
ATOM     14  C   UNL     1      20.916   0.462  51.121  1.00  0.00    +0.022 A 
ATOM     15  C   UNL     1      19.399  -0.175  52.841  1.00  0.00    +0.130 A 
ATOM     16  C   UNL     1      19.601   0.238  51.527  1.00  0.00    +0.033 A 
BRANCH  16  17
ATOM     17  S   UNL     1      18.248   0.508  50.414  1.00  0.00    -0.062 SA
BRANCH  17  18
ATOM     18  C   UNL     1      17.405   1.825  51.171  1.00  0.00    +0.129 C 
ATOM     19  N   UNL     1      16.187   1.762  51.596  1.00  0.00    -0.271 NA
ATOM     20  S   UNL     1      18.254   3.336  51.339  1.00  0.00    -0.098 SA
ATOM     21  C   UNL     1      15.825   3.054  52.214  1.00  0.00    +0.155 C 
ATOM     22  C   UNL     1      16.687   4.168  51.639  1.00  0.00    +0.101 C 
ENDBRANCH  17  18
ENDBRANCH  16  17
ENDBRANCH  10  11
ENDBRANCH   1  10
TORSDOF 8
ENDMDL
MODEL 7
REMARK VINA RESULT:    -4.916      3.550      8.001
REMARK INTER + INTRA:          -7.952
REMARK INTER:                  -7.325
REMARK INTRA:                  -0.627
REMARK UNBOUND:                -0.881
REMARK SMILES C[N+](C)(C)C[C@@H](O)COc1ccc(SC2=NCCS2)cn1
REMARK SMILES IDX 8 1 6 2 5 3 2 4 1 5 3 6 4 7 7 8 9 10 10 11 11 12 21 13 12 14
REMARK SMILES IDX 20 15 13 16 14 17 15 18 16 19 19 20 17 21 18 22
REMARK H PARENT 7 9
ROOT
ATOM      1  C   UNL     1      24.062  -0.552  53.751  1.00  0.00    +0.269 C 
ENDROOT
BRANCH   1   2
ATOM      2  C   UNL     1      25.354  -0.880  54.513  1.00  0.00    +0.206 C 
BRANCH   2   3
ATOM      3  C   UNL     1      26.209   0.397  54.660  1.00  0.00    +0.299 C 
BRANCH   3   4
ATOM      4  N   UNL     1      27.529   0.404  53.836  1.00  0.00    -0.329 N 
ATOM      5  C   UNL     1      28.752   0.262  54.739  1.00  0.00    +0.334 C 
ATOM      6  C   UNL     1      27.539  -0.702  52.793  1.00  0.00    +0.334 C 
ATOM      7  C   UNL     1      27.620   1.753  53.119  1.00  0.00    +0.334 C 
ENDBRANCH   3   4
ENDBRANCH   2   3
BRANCH   2   8
ATOM      8  O   UNL     1      25.012  -1.393  55.809  1.00  0.00    -0.384 OA
ATOM      9  H   UNL     1      25.652  -1.001  56.441  1.00  0.00    +0.211 HD
ENDBRANCH   2   8
ENDBRANCH   1   2
BRANCH   1  10
ATOM     10  O   UNL     1      24.133   0.829  53.374  1.00  0.00    -0.475 OA
BRANCH  10  11
ATOM     11  C   UNL     1      23.414   1.100  52.226  1.00  0.00    +0.213 A 
ATOM     12  C   UNL     1      22.228   0.403  52.057  1.00  0.00    +0.069 A 
ATOM     13  N   UNL     1      23.890   2.001  51.343  1.00  0.00    -0.221 NA
ATOM     14  C   UNL     1      21.473   0.647  50.911  1.00  0.00    +0.022 A 
ATOM     15  C   UNL     1      23.125   2.223  50.244  1.00  0.00    +0.130 A 
ATOM     16  C   UNL     1      21.918   1.583  49.979  1.00  0.00    +0.033 A 
BRANCH  16  17
ATOM     17  S   UNL     1      20.991   1.906  48.503  1.00  0.00    -0.062 SA
BRANCH  17  18
ATOM     18  C   UNL     1      21.079   3.637  48.385  1.00  0.00    +0.129 C 
ATOM     19  N   UNL     1      20.476   4.454  49.184  1.00  0.00    -0.271 NA
ATOM     20  S   UNL     1      22.019   4.310  47.084  1.00  0.00    -0.098 SA
ATOM     21  C   UNL     1      20.815   5.840  48.801  1.00  0.00    +0.155 C 
ATOM     22  C   UNL     1      21.206   5.895  47.332  1.00  0.00    +0.101 C 
ENDBRANCH  17  18
ENDBRANCH  16  17
ENDBRANCH  10  11
ENDBRANCH   1  10
TORSDOF 8
ENDMDL
MODEL 8
REMARK VINA RESULT:    -4.809      4.079      8.141
REMARK INTER + INTRA:          -7.799
REMARK INTER:                  -7.308
REMARK INTRA:                  -0.491
REMARK UNBOUND:                -0.881
REMARK SMILES C[N+](C)(C)C[C@@H](O)COc1ccc(SC2=NCCS2)cn1
REMARK SMILES IDX 8 1 6 2 5 3 2 4 1 5 3 6 4 7 7 8 9 10 10 11 11 12 21 13 12 14
REMARK SMILES IDX 20 15 13 16 14 17 15 18 16 19 19 20 17 21 18 22
REMARK H PARENT 7 9
ROOT
ATOM      1  C   UNL     1      24.232   0.037  53.515  1.00  0.00    +0.269 C 
ENDROOT
BRANCH   1   2
ATOM      2  C   UNL     1      25.350  -0.688  54.278  1.00  0.00    +0.206 C 
BRANCH   2   3
ATOM      3  C   UNL     1      26.439   0.324  54.690  1.00  0.00    +0.299 C 
BRANCH   3   4
ATOM      4  N   UNL     1      27.740   0.275  53.839  1.00  0.00    -0.329 N 
ATOM      5  C   UNL     1      27.959   1.580  53.076  1.00  0.00    +0.334 C 
ATOM      6  C   UNL     1      28.958  -0.016  54.702  1.00  0.00    +0.334 C 
ATOM      7  C   UNL     1      27.584  -0.854  52.817  1.00  0.00    +0.334 C 
ENDBRANCH   3   4
ENDBRANCH   2   3
BRANCH   2   8
ATOM      8  O   UNL     1      24.790  -1.309  55.444  1.00  0.00    -0.384 OA
ATOM      9  H   UNL     1      25.438  -1.175  56.168  1.00  0.00    +0.211 HD
ENDBRANCH   2   8
ENDBRANCH   1   2
BRANCH   1  10
ATOM     10  O   UNL     1      24.540   1.436  53.543  1.00  0.00    -0.475 OA
BRANCH  10  11
ATOM     11  C   UNL     1      23.585   2.200  52.899  1.00  0.00    +0.213 A 
ATOM     12  C   UNL     1      23.879   3.542  52.722  1.00  0.00    +0.069 A 
ATOM     13  N   UNL     1      22.438   1.620  52.490  1.00  0.00    -0.221 NA
ATOM     14  C   UNL     1      22.942   4.347  52.078  1.00  0.00    +0.022 A 
ATOM     15  C   UNL     1      21.551   2.429  51.857  1.00  0.00    +0.130 A 
ATOM     16  C   UNL     1      21.749   3.786  51.623  1.00  0.00    +0.033 A 
BRANCH  16  17
ATOM     17  S   UNL     1      20.528   4.785  50.814  1.00  0.00    -0.062 SA
BRANCH  17  18
ATOM     18  C   UNL     1      19.126   3.760  50.859  1.00  0.00    +0.129 C 
ATOM     19  N   UNL     1      18.320   3.672  51.866  1.00  0.00    -0.271 NA
ATOM     20  S   UNL     1      18.807   2.767  49.466  1.00  0.00    -0.098 SA
ATOM     21  C   UNL     1      17.227   2.737  51.526  1.00  0.00    +0.155 C 
ATOM     22  C   UNL     1      17.688   1.762  50.453  1.00  0.00    +0.101 C 
ENDBRANCH  17  18
ENDBRANCH  16  17
ENDBRANCH  10  11
ENDBRANCH   1  10
TORSDOF 8
ENDMDL
MODEL 9
REMARK VINA RESULT:    -4.758      4.181      5.024
REMARK INTER + INTRA:          -7.724
REMARK INTER:                  -7.177
REMARK INTRA:                  -0.547
REMARK UNBOUND:                -0.881
REMARK SMILES C[N+](C)(C)C[C@@H](O)COc1ccc(SC2=NCCS2)cn1
REMARK SMILES IDX 8 1 6 2 5 3 2 4 1 5 3 6 4 7 7 8 9 10 10 11 11 12 21 13 12 14
REMARK SMILES IDX 20 15 13 16 14 17 15 18 16 19 19 20 17 21 18 22
REMARK H PARENT 7 9
ROOT
ATOM      1  C   UNL     1      27.638   5.263  48.663  1.00  0.00    +0.269 C 
ENDROOT
BRANCH   1   2
ATOM      2  C   UNL     1      28.120   6.712  48.503  1.00  0.00    +0.206 C 
BRANCH   2   3
ATOM      3  C   UNL     1      29.588   6.722  48.027  1.00  0.00    +0.299 C 
BRANCH   3   4
ATOM      4  N   UNL     1      30.569   7.520  48.932  1.00  0.00    -0.329 N 
ATOM      5  C   UNL     1      31.565   8.327  48.102  1.00  0.00    +0.334 C 
ATOM      6  C   UNL     1      29.823   8.454  49.873  1.00  0.00    +0.334 C 
ATOM      7  C   UNL     1      31.355   6.509  49.769  1.00  0.00    +0.334 C 
ENDBRANCH   3   4
ENDBRANCH   2   3
BRANCH   2   8
ATOM      8  O   UNL     1      27.288   7.376  47.541  1.00  0.00    -0.384 OA
ATOM      9  H   UNL     1      27.782   7.368  46.694  1.00  0.00    +0.211 HD
ENDBRANCH   2   8
ENDBRANCH   1   2
BRANCH   1  10
ATOM     10  O   UNL     1      26.214   5.306  48.815  1.00  0.00    -0.475 OA
BRANCH  10  11
ATOM     11  C   UNL     1      25.760   4.433  49.785  1.00  0.00    +0.213 A 
ATOM     12  C   UNL     1      26.482   3.262  49.954  1.00  0.00    +0.069 A 
ATOM     13  N   UNL     1      24.659   4.748  50.498  1.00  0.00    -0.221 NA
ATOM     14  C   UNL     1      26.057   2.354  50.921  1.00  0.00    +0.022 A 
ATOM     15  C   UNL     1      24.278   3.848  51.439  1.00  0.00    +0.130 A 
ATOM     16  C   UNL     1      24.934   2.647  51.694  1.00  0.00    +0.033 A 
BRANCH  16  17
ATOM     17  S   UNL     1      24.356   1.507  52.922  1.00  0.00    -0.062 SA
BRANCH  17  18
ATOM     18  C   UNL     1      25.837   0.810  53.505  1.00  0.00    +0.129 C 
ATOM     19  N   UNL     1      26.658   1.408  54.304  1.00  0.00    -0.271 NA
ATOM     20  S   UNL     1      26.251  -0.786  52.948  1.00  0.00    -0.098 SA
ATOM     21  C   UNL     1      27.779   0.496  54.611  1.00  0.00    +0.155 C 
ATOM     22  C   UNL     1      27.945  -0.522  53.493  1.00  0.00    +0.101 C 
ENDBRANCH  17  18
ENDBRANCH  16  17
ENDBRANCH  10  11
ENDBRANCH   1  10
TORSDOF 8
ENDMDL
