MODEL 1
REMARK VINA RESULT:    -8.050      0.000      0.000
REMARK INTER + INTRA:         -11.856
REMARK INTER:                 -10.639
REMARK INTRA:                  -1.217
REMARK UNBOUND:                -1.217
REMARK SMILES CN(C(=O)c1ccccn1)c1ccc(-c2ccc(O)c([N+](=O)[O-])c2)[nH]1
REMARK SMILES IDX 11 1 12 2 13 3 14 4 25 5 2 7 1 8 3 9 4 10 5 11 6 12 10 13
REMARK SMILES IDX 7 14 9 15 8 16 15 17 16 18 24 19 17 20 20 21 18 22 21 23
REMARK SMILES IDX 22 24 23 25 19 26
REMARK H PARENT 25 6 19 27
ROOT
ATOM      1  C   UNL     1      22.369   2.602  49.848  1.00  0.00    +0.113 A 
ATOM      2  C   UNL     1      21.422   1.710  49.388  1.00  0.00    +0.047 A 
ATOM      3  C   UNL     1      21.309   0.664  50.339  1.00  0.00    +0.030 A 
ATOM      4  C   UNL     1      22.185   0.925  51.378  1.00  0.00    +0.047 A 
ATOM      5  N   UNL     1      22.825   2.099  51.045  1.00  0.00    -0.341 N 
ATOM      6  H   UNL     1      23.542   2.562  51.590  1.00  0.00    +0.168 HD
ENDROOT
BRANCH   1   7
ATOM      7  N   UNL     1      22.852   3.798  49.285  1.00  0.00    -0.296 N 
ATOM      8  C   UNL     1      22.467   4.175  47.925  1.00  0.00    +0.155 C 
BRANCH   7   9
ATOM      9  C   UNL     1      23.715   4.605  50.069  1.00  0.00    +0.277 C 
ATOM     10  O   UNL     1      23.422   5.027  51.196  1.00  0.00    -0.267 OA
BRANCH   9  11
ATOM     11  C   UNL     1      25.068   4.994  49.545  1.00  0.00    +0.128 A 
ATOM     12  C   UNL     1      26.068   4.024  49.493  1.00  0.00    +0.034 A 
ATOM     13  N   UNL     1      25.241   6.259  49.080  1.00  0.00    -0.251 NA
ATOM     14  C   UNL     1      27.307   4.371  48.963  1.00  0.00    +0.004 A 
ATOM     15  C   UNL     1      26.454   6.562  48.567  1.00  0.00    +0.112 A 
ATOM     16  C   UNL     1      27.506   5.664  48.492  1.00  0.00    +0.020 A 
ENDBRANCH   9  11
ENDBRANCH   7   9
ENDBRANCH   1   7
BRANCH   4  17
ATOM     17  C   UNL     1      22.468   0.176  52.604  1.00  0.00    +0.005 A 
ATOM     18  C   UNL     1      21.419  -0.405  53.337  1.00  0.00    +0.014 A 
ATOM     19  C   UNL     1      23.777   0.027  53.077  1.00  0.00    +0.100 A 
ATOM     20  C   UNL     1      21.661  -1.123  54.516  1.00  0.00    +0.054 A 
ATOM     21  C   UNL     1      24.007  -0.699  54.255  1.00  0.00    +0.311 A 
ATOM     22  C   UNL     1      22.964  -1.269  54.981  1.00  0.00    +0.194 A 
BRANCH  21  23
ATOM     23  N   UNL     1      25.373  -0.841  54.710  1.00  0.00    +0.066 N 
ATOM     24  O   UNL     1      26.212  -1.182  53.863  1.00  0.00    -0.258 OA
ATOM     25  O   UNL     1      25.594  -0.672  55.917  1.00  0.00    -0.258 OA
ENDBRANCH  21  23
BRANCH  22  26
ATOM     26  O   UNL     1      23.202  -1.942  56.143  1.00  0.00    -0.502 OA
ATOM     27  H   UNL     1      22.634  -2.731  56.191  1.00  0.00    +0.293 HD
ENDBRANCH  22  26
ENDBRANCH   4  17
TORSDOF 6
ENDMDL
MODEL 2
REMARK VINA RESULT:    -7.762      4.104      6.842
REMARK INTER + INTRA:         -11.475
REMARK INTER:                 -10.535
REMARK INTRA:                  -0.939
REMARK UNBOUND:                -1.217
REMARK SMILES CN(C(=O)c1ccccn1)c1ccc(-c2ccc(O)c([N+](=O)[O-])c2)[nH]1
REMARK SMILES IDX 11 1 12 2 13 3 14 4 25 5 2 7 1 8 3 9 4 10 5 11 6 12 10 13
REMARK SMILES IDX 7 14 9 15 8 16 15 17 16 18 24 19 17 20 20 21 18 22 21 23
REMARK SMILES IDX 22 24 23 25 19 26
REMARK H PARENT 25 6 19 27
ROOT
ATOM      1  C   UNL     1      23.721  -0.605  54.190  1.00  0.00    +0.113 A 
ATOM      2  C   UNL     1      22.763  -1.259  54.937  1.00  0.00    +0.047 A 
ATOM      3  C   UNL     1      21.517  -1.107  54.277  1.00  0.00    +0.030 A 
ATOM      4  C   UNL     1      21.722  -0.365  53.126  1.00  0.00    +0.047 A 
ATOM      5  N   UNL     1      23.065  -0.063  53.108  1.00  0.00    -0.341 N 
ATOM      6  H   UNL     1      23.544   0.485  52.403  1.00  0.00    +0.168 HD
ENDROOT
BRANCH   1   7
ATOM      7  N   UNL     1      25.104  -0.452  54.403  1.00  0.00    -0.296 N 
ATOM      8  C   UNL     1      25.642  -0.481  55.764  1.00  0.00    +0.155 C 
BRANCH   7   9
ATOM      9  C   UNL     1      25.939  -0.267  53.272  1.00  0.00    +0.277 C 
ATOM     10  O   UNL     1      25.593   0.356  52.260  1.00  0.00    -0.267 OA
BRANCH   9  11
ATOM     11  C   UNL     1      27.328  -0.838  53.259  1.00  0.00    +0.128 A 
ATOM     12  C   UNL     1      28.403   0.014  53.505  1.00  0.00    +0.034 A 
ATOM     13  N   UNL     1      27.474  -2.177  53.072  1.00  0.00    -0.251 NA
ATOM     14  C   UNL     1      29.686  -0.525  53.540  1.00  0.00    +0.004 A 
ATOM     15  C   UNL     1      28.731  -2.668  53.117  1.00  0.00    +0.112 A 
ATOM     16  C   UNL     1      29.856  -1.891  53.342  1.00  0.00    +0.020 A 
ENDBRANCH   9  11
ENDBRANCH   7   9
ENDBRANCH   1   7
BRANCH   4  17
ATOM     17  C   UNL     1      20.785   0.077  52.092  1.00  0.00    +0.005 A 
ATOM     18  C   UNL     1      19.399  -0.013  52.307  1.00  0.00    +0.014 A 
ATOM     19  C   UNL     1      21.241   0.591  50.872  1.00  0.00    +0.100 A 
ATOM     20  C   UNL     1      18.480   0.399  51.332  1.00  0.00    +0.054 A 
ATOM     21  C   UNL     1      20.312   1.005  49.907  1.00  0.00    +0.311 A 
ATOM     22  C   UNL     1      18.938   0.910  50.121  1.00  0.00    +0.194 A 
BRANCH  21  23
ATOM     23  N   UNL     1      20.818   1.539  48.662  1.00  0.00    +0.066 N 
ATOM     24  O   UNL     1      21.772   0.942  48.143  1.00  0.00    -0.258 OA
ATOM     25  O   UNL     1      20.303   2.582  48.235  1.00  0.00    -0.258 OA
ENDBRANCH  21  23
BRANCH  22  26
ATOM     26  O   UNL     1      18.049   1.284  49.159  1.00  0.00    -0.502 OA
ATOM     27  H   UNL     1      17.250   0.732  49.213  1.00  0.00    +0.293 HD
ENDBRANCH  22  26
ENDBRANCH   4  17
TORSDOF 6
ENDMDL
MODEL 3
REMARK VINA RESULT:    -7.701      2.979      5.013
REMARK INTER + INTRA:         -11.395
REMARK INTER:                 -10.503
REMARK INTRA:                  -0.892
REMARK UNBOUND:                -1.217
REMARK SMILES CN(C(=O)c1ccccn1)c1ccc(-c2ccc(O)c([N+](=O)[O-])c2)[nH]1
REMARK SMILES IDX 11 1 12 2 13 3 14 4 25 5 2 7 1 8 3 9 4 10 5 11 6 12 10 13
REMARK SMILES IDX 7 14 9 15 8 16 15 17 16 18 24 19 17 20 20 21 18 22 21 23
REMARK SMILES IDX 22 24 23 25 19 26
REMARK H PARENT 25 6 19 27
ROOT
ATOM      1  C   UNL     1      21.419   0.112  53.163  1.00  0.00    +0.113 A 
ATOM      2  C   UNL     1      21.739  -0.911  54.032  1.00  0.00    +0.047 A 
ATOM      3  C   UNL     1      23.138  -0.870  54.258  1.00  0.00    +0.030 A 
ATOM      4  C   UNL     1      23.666   0.182  53.529  1.00  0.00    +0.047 A 
ATOM      5  N   UNL     1      22.602   0.749  52.864  1.00  0.00    -0.341 N 
ATOM      6  H   UNL     1      22.646   1.537  52.229  1.00  0.00    +0.168 HD
ENDROOT
BRANCH   1   7
ATOM      7  N   UNL     1      20.180   0.502  52.623  1.00  0.00    -0.296 N 
ATOM      8  C   UNL     1      19.008  -0.359  52.782  1.00  0.00    +0.155 C 
BRANCH   7   9
ATOM      9  C   UNL     1      20.112   1.735  51.926  1.00  0.00    +0.277 C 
ATOM     10  O   UNL     1      19.376   2.672  52.262  1.00  0.00    -0.267 OA
BRANCH   9  11
ATOM     11  C   UNL     1      20.964   1.962  50.710  1.00  0.00    +0.128 A 
ATOM     12  C   UNL     1      20.792   1.126  49.608  1.00  0.00    +0.034 A 
ATOM     13  N   UNL     1      21.821   3.018  50.710  1.00  0.00    -0.251 NA
ATOM     14  C   UNL     1      21.547   1.366  48.464  1.00  0.00    +0.004 A 
ATOM     15  C   UNL     1      22.534   3.226  49.582  1.00  0.00    +0.112 A 
ATOM     16  C   UNL     1      22.436   2.435  48.448  1.00  0.00    +0.020 A 
ENDBRANCH   9  11
ENDBRANCH   7   9
ENDBRANCH   1   7
BRANCH   4  17
ATOM     17  C   UNL     1      25.042   0.665  53.402  1.00  0.00    +0.005 A 
ATOM     18  C   UNL     1      25.373   1.612  52.418  1.00  0.00    +0.014 A 
ATOM     19  C   UNL     1      26.056   0.196  54.246  1.00  0.00    +0.100 A 
ATOM     20  C   UNL     1      26.683   2.087  52.272  1.00  0.00    +0.054 A 
ATOM     21  C   UNL     1      27.361   0.683  54.094  1.00  0.00    +0.311 A 
ATOM     22  C   UNL     1      27.687   1.618  53.114  1.00  0.00    +0.194 A 
BRANCH  21  23
ATOM     23  N   UNL     1      28.382   0.184  54.989  1.00  0.00    +0.066 N 
ATOM     24  O   UNL     1      28.178   0.323  56.204  1.00  0.00    -0.258 OA
ATOM     25  O   UNL     1      29.407  -0.290  54.480  1.00  0.00    -0.258 OA
ENDBRANCH  21  23
BRANCH  22  26
ATOM     26  O   UNL     1      28.968   2.055  52.957  1.00  0.00    -0.502 OA
ATOM     27  H   UNL     1      29.538   1.317  52.681  1.00  0.00    +0.293 HD
ENDBRANCH  22  26
ENDBRANCH   4  17
TORSDOF 6
ENDMDL
MODEL 4
REMARK VINA RESULT:    -7.542      3.203      4.414
REMARK INTER + INTRA:         -11.184
REMARK INTER:                 -10.106
REMARK INTRA:                  -1.078
REMARK UNBOUND:                -1.217
REMARK SMILES CN(C(=O)c1ccccn1)c1ccc(-c2ccc(O)c([N+](=O)[O-])c2)[nH]1
REMARK SMILES IDX 11 1 12 2 13 3 14 4 25 5 2 7 1 8 3 9 4 10 5 11 6 12 10 13
REMARK SMILES IDX 7 14 9 15 8 16 15 17 16 18 24 19 17 20 20 21 18 22 21 23
REMARK SMILES IDX 22 24 23 25 19 26
REMARK H PARENT 25 6 19 27
ROOT
ATOM      1  C   UNL     1      22.383   1.095  52.113  1.00  0.00    +0.113 A 
ATOM      2  C   UNL     1      22.032   0.088  52.988  1.00  0.00    +0.047 A 
ATOM      3  C   UNL     1      23.227  -0.503  53.473  1.00  0.00    +0.030 A 
ATOM      4  C   UNL     1      24.301   0.150  52.895  1.00  0.00    +0.047 A 
ATOM      5  N   UNL     1      23.758   1.104  52.063  1.00  0.00    -0.341 N 
ATOM      6  H   UNL     1      24.275   1.749  51.477  1.00  0.00    +0.168 HD
ENDROOT
BRANCH   1   7
ATOM      7  N   UNL     1      21.583   1.980  51.365  1.00  0.00    -0.296 N 
ATOM      8  C   UNL     1      21.230   1.656  49.982  1.00  0.00    +0.155 C 
BRANCH   7   9
ATOM      9  C   UNL     1      21.147   3.177  51.987  1.00  0.00    +0.277 C 
ATOM     10  O   UNL     1      20.250   3.218  52.839  1.00  0.00    -0.267 OA
BRANCH   9  11
ATOM     11  C   UNL     1      21.781   4.490  51.625  1.00  0.00    +0.128 A 
ATOM     12  C   UNL     1      23.105   4.717  51.996  1.00  0.00    +0.034 A 
ATOM     13  N   UNL     1      21.056   5.376  50.891  1.00  0.00    -0.251 NA
ATOM     14  C   UNL     1      23.707   5.914  51.619  1.00  0.00    +0.004 A 
ATOM     15  C   UNL     1      21.672   6.525  50.537  1.00  0.00    +0.112 A 
ATOM     16  C   UNL     1      22.979   6.837  50.876  1.00  0.00    +0.020 A 
ENDBRANCH   9  11
ENDBRANCH   7   9
ENDBRANCH   1   7
BRANCH   4  17
ATOM     17  C   UNL     1      25.743  -0.058  53.045  1.00  0.00    +0.005 A 
ATOM     18  C   UNL     1      26.302  -1.329  52.830  1.00  0.00    +0.014 A 
ATOM     19  C   UNL     1      26.593   0.993  53.410  1.00  0.00    +0.100 A 
ATOM     20  C   UNL     1      27.677  -1.557  52.972  1.00  0.00    +0.054 A 
ATOM     21  C   UNL     1      27.968   0.755  53.543  1.00  0.00    +0.311 A 
ATOM     22  C   UNL     1      28.518  -0.509  53.334  1.00  0.00    +0.194 A 
BRANCH  21  23
ATOM     23  N   UNL     1      28.818   1.865  53.911  1.00  0.00    +0.066 N 
ATOM     24  O   UNL     1      29.348   1.817  55.031  1.00  0.00    -0.258 OA
ATOM     25  O   UNL     1      28.909   2.807  53.111  1.00  0.00    -0.258 OA
ENDBRANCH  21  23
BRANCH  22  26
ATOM     26  O   UNL     1      29.852  -0.731  53.502  1.00  0.00    -0.502 OA
ATOM     27  H   UNL     1      30.355  -0.255  52.819  1.00  0.00    +0.293 HD
ENDBRANCH  22  26
ENDBRANCH   4  17
TORSDOF 6
ENDMDL
MODEL 5
REMARK VINA RESULT:    -7.539      2.963      5.894
REMARK INTER + INTRA:         -11.181
REMARK INTER:                 -10.466
REMARK INTRA:                  -0.715
REMARK UNBOUND:                -1.217
REMARK SMILES CN(C(=O)c1ccccn1)c1ccc(-c2ccc(O)c([N+](=O)[O-])c2)[nH]1
REMARK SMILES IDX 11 1 12 2 13 3 14 4 25 5 2 7 1 8 3 9 4 10 5 11 6 12 10 13
REMARK SMILES IDX 7 14 9 15 8 16 15 17 16 18 24 19 17 20 20 21 18 22 21 23
REMARK SMILES IDX 22 24 23 25 19 26
REMARK H PARENT 25 6 19 27
ROOT
ATOM      1  C   UNL     1      23.742   2.604  50.981  1.00  0.00    +0.113 A 
ATOM      2  C   UNL     1      24.629   3.489  50.403  1.00  0.00    +0.047 A 
ATOM      3  C   UNL     1      25.940   3.104  50.785  1.00  0.00    +0.030 A 
ATOM      4  C   UNL     1      25.846   1.981  51.590  1.00  0.00    +0.047 A 
ATOM      5  N   UNL     1      24.501   1.711  51.702  1.00  0.00    -0.341 N 
ATOM      6  H   UNL     1      24.087   0.957  52.238  1.00  0.00    +0.168 HD
ENDROOT
BRANCH   1   7
ATOM      7  N   UNL     1      22.338   2.542  50.919  1.00  0.00    -0.296 N 
ATOM      8  C   UNL     1      21.558   3.769  50.754  1.00  0.00    +0.155 C 
BRANCH   7   9
ATOM      9  C   UNL     1      21.718   1.271  51.028  1.00  0.00    +0.277 C 
ATOM     10  O   UNL     1      21.208   0.674  50.071  1.00  0.00    -0.267 OA
BRANCH   9  11
ATOM     11  C   UNL     1      21.656   0.574  52.357  1.00  0.00    +0.128 A 
ATOM     12  C   UNL     1      20.715   1.001  53.292  1.00  0.00    +0.034 A 
ATOM     13  N   UNL     1      22.476  -0.490  52.567  1.00  0.00    -0.251 NA
ATOM     14  C   UNL     1      20.624   0.323  54.504  1.00  0.00    +0.004 A 
ATOM     15  C   UNL     1      22.359  -1.128  53.752  1.00  0.00    +0.112 A 
ATOM     16  C   UNL     1      21.462  -0.761  54.741  1.00  0.00    +0.020 A 
ENDBRANCH   9  11
ENDBRANCH   7   9
ENDBRANCH   1   7
BRANCH   4  17
ATOM     17  C   UNL     1      26.884   1.186  52.248  1.00  0.00    +0.005 A 
ATOM     18  C   UNL     1      27.921   1.819  52.956  1.00  0.00    +0.014 A 
ATOM     19  C   UNL     1      26.874  -0.213  52.186  1.00  0.00    +0.100 A 
ATOM     20  C   UNL     1      28.929   1.082  53.591  1.00  0.00    +0.054 A 
ATOM     21  C   UNL     1      27.885  -0.940  52.831  1.00  0.00    +0.311 A 
ATOM     22  C   UNL     1      28.914  -0.308  53.527  1.00  0.00    +0.194 A 
BRANCH  21  23
ATOM     23  N   UNL     1      27.838  -2.383  52.755  1.00  0.00    +0.066 N 
ATOM     24  O   UNL     1      26.929  -2.879  52.073  1.00  0.00    -0.258 OA
ATOM     25  O   UNL     1      28.669  -3.018  53.419  1.00  0.00    -0.258 OA
ENDBRANCH  21  23
BRANCH  22  26
ATOM     26  O   UNL     1      29.908  -1.029  54.119  1.00  0.00    -0.502 OA
ATOM     27  H   UNL     1      30.740  -0.525  54.097  1.00  0.00    +0.293 HD
ENDBRANCH  22  26
ENDBRANCH   4  17
TORSDOF 6
ENDMDL
MODEL 6
REMARK VINA RESULT:    -7.514      4.055      6.662
REMARK INTER + INTRA:         -11.148
REMARK INTER:                 -10.217
REMARK INTRA:                  -0.931
REMARK UNBOUND:                -1.217
REMARK SMILES CN(C(=O)c1ccccn1)c1ccc(-c2ccc(O)c([N+](=O)[O-])c2)[nH]1
REMARK SMILES IDX 11 1 12 2 13 3 14 4 25 5 2 7 1 8 3 9 4 10 5 11 6 12 10 13
REMARK SMILES IDX 7 14 9 15 8 16 15 17 16 18 24 19 17 20 20 21 18 22 21 23
REMARK SMILES IDX 22 24 23 25 19 26
REMARK H PARENT 25 6 19 27
ROOT
ATOM      1  C   UNL     1      22.355   0.413  52.565  1.00  0.00    +0.113 A 
ATOM      2  C   UNL     1      22.214  -0.319  53.726  1.00  0.00    +0.047 A 
ATOM      3  C   UNL     1      23.511  -0.657  54.189  1.00  0.00    +0.030 A 
ATOM      4  C   UNL     1      24.439  -0.124  53.310  1.00  0.00    +0.047 A 
ATOM      5  N   UNL     1      23.708   0.506  52.328  1.00  0.00    -0.341 N 
ATOM      6  H   UNL     1      24.084   0.988  51.521  1.00  0.00    +0.168 HD
ENDROOT
BRANCH   1   7
ATOM      7  N   UNL     1      21.387   0.982  51.716  1.00  0.00    -0.296 N 
ATOM      8  C   UNL     1      21.631   1.056  50.275  1.00  0.00    +0.155 C 
BRANCH   7   9
ATOM      9  C   UNL     1      20.194   1.477  52.299  1.00  0.00    +0.277 C 
ATOM     10  O   UNL     1      20.129   2.542  52.927  1.00  0.00    -0.267 OA
BRANCH   9  11
ATOM     11  C   UNL     1      18.913   0.701  52.172  1.00  0.00    +0.128 A 
ATOM     12  C   UNL     1      18.818  -0.538  52.803  1.00  0.00    +0.034 A 
ATOM     13  N   UNL     1      17.877   1.271  51.502  1.00  0.00    -0.251 NA
ATOM     14  C   UNL     1      17.616  -1.234  52.725  1.00  0.00    +0.004 A 
ATOM     15  C   UNL     1      16.723   0.571  51.451  1.00  0.00    +0.112 A 
ATOM     16  C   UNL     1      16.547  -0.672  52.036  1.00  0.00    +0.020 A 
ENDBRANCH   9  11
ENDBRANCH   7   9
ENDBRANCH   1   7
BRANCH   4  17
ATOM     17  C   UNL     1      25.902  -0.175  53.315  1.00  0.00    +0.005 A 
ATOM     18  C   UNL     1      26.570  -1.386  53.063  1.00  0.00    +0.014 A 
ATOM     19  C   UNL     1      26.666   0.969  53.573  1.00  0.00    +0.100 A 
ATOM     20  C   UNL     1      27.969  -1.464  53.066  1.00  0.00    +0.054 A 
ATOM     21  C   UNL     1      28.065   0.880  53.568  1.00  0.00    +0.311 A 
ATOM     22  C   UNL     1      28.724  -0.324  53.323  1.00  0.00    +0.194 A 
BRANCH  21  23
ATOM     23  N   UNL     1      28.824   2.083  53.830  1.00  0.00    +0.066 N 
ATOM     24  O   UNL     1      28.937   2.889  52.894  1.00  0.00    -0.258 OA
ATOM     25  O   UNL     1      29.354   2.195  54.944  1.00  0.00    -0.258 OA
ENDBRANCH  21  23
BRANCH  22  26
ATOM     26  O   UNL     1      30.084  -0.400  53.357  1.00  0.00    -0.502 OA
ATOM     27  H   UNL     1      30.405  -0.920  52.599  1.00  0.00    +0.293 HD
ENDBRANCH  22  26
ENDBRANCH   4  17
TORSDOF 6
ENDMDL
MODEL 7
REMARK VINA RESULT:    -7.402      2.983      4.614
REMARK INTER + INTRA:         -10.999
REMARK INTER:                  -9.753
REMARK INTRA:                  -1.246
REMARK UNBOUND:                -1.217
REMARK SMILES CN(C(=O)c1ccccn1)c1ccc(-c2ccc(O)c([N+](=O)[O-])c2)[nH]1
REMARK SMILES IDX 11 1 12 2 13 3 14 4 25 5 2 7 1 8 3 9 4 10 5 11 6 12 10 13
REMARK SMILES IDX 7 14 9 15 8 16 15 17 16 18 24 19 17 20 20 21 18 22 21 23
REMARK SMILES IDX 22 24 23 25 19 26
REMARK H PARENT 25 6 19 27
ROOT
ATOM      1  C   UNL     1      22.504   0.619  52.552  1.00  0.00    +0.113 A 
ATOM      2  C   UNL     1      22.302  -0.362  53.500  1.00  0.00    +0.047 A 
ATOM      3  C   UNL     1      23.573  -0.808  53.944  1.00  0.00    +0.030 A 
ATOM      4  C   UNL     1      24.545  -0.091  53.268  1.00  0.00    +0.047 A 
ATOM      5  N   UNL     1      23.867   0.756  52.420  1.00  0.00    -0.341 N 
ATOM      6  H   UNL     1      24.285   1.410  51.770  1.00  0.00    +0.168 HD
ENDROOT
BRANCH   1   7
ATOM      7  N   UNL     1      21.582   1.378  51.806  1.00  0.00    -0.296 N 
ATOM      8  C   UNL     1      20.486   2.071  52.485  1.00  0.00    +0.155 C 
BRANCH   7   9
ATOM      9  C   UNL     1      21.748   1.439  50.399  1.00  0.00    +0.277 C 
ATOM     10  O   UNL     1      21.343   0.564  49.623  1.00  0.00    -0.267 OA
BRANCH   9  11
ATOM     11  C   UNL     1      22.448   2.612  49.773  1.00  0.00    +0.128 A 
ATOM     12  C   UNL     1      21.756   3.381  48.839  1.00  0.00    +0.034 A 
ATOM     13  N   UNL     1      23.705   2.914  50.193  1.00  0.00    -0.251 NA
ATOM     14  C   UNL     1      22.386   4.496  48.295  1.00  0.00    +0.004 A 
ATOM     15  C   UNL     1      24.286   4.005  49.648  1.00  0.00    +0.112 A 
ATOM     16  C   UNL     1      23.676   4.815  48.705  1.00  0.00    +0.020 A 
ENDBRANCH   9  11
ENDBRANCH   7   9
ENDBRANCH   1   7
BRANCH   4  17
ATOM     17  C   UNL     1      26.006  -0.152  53.343  1.00  0.00    +0.005 A 
ATOM     18  C   UNL     1      26.677  -1.368  53.124  1.00  0.00    +0.014 A 
ATOM     19  C   UNL     1      26.765   0.987  53.638  1.00  0.00    +0.100 A 
ATOM     20  C   UNL     1      28.074  -1.455  53.194  1.00  0.00    +0.054 A 
ATOM     21  C   UNL     1      28.162   0.888  53.700  1.00  0.00    +0.311 A 
ATOM     22  C   UNL     1      28.823  -0.320  53.487  1.00  0.00    +0.194 A 
BRANCH  21  23
ATOM     23  N   UNL     1      28.916   2.086  53.998  1.00  0.00    +0.066 N 
ATOM     24  O   UNL     1      28.990   2.939  53.100  1.00  0.00    -0.258 OA
ATOM     25  O   UNL     1      29.479   2.149  55.099  1.00  0.00    -0.258 OA
ENDBRANCH  21  23
BRANCH  22  26
ATOM     26  O   UNL     1      30.180  -0.405  53.586  1.00  0.00    -0.502 OA
ATOM     27  H   UNL     1      30.557   0.478  53.740  1.00  0.00    +0.293 HD
ENDBRANCH  22  26
ENDBRANCH   4  17
TORSDOF 6
ENDMDL
MODEL 8
REMARK VINA RESULT:    -7.343      3.754      6.470
REMARK INTER + INTRA:         -10.921
REMARK INTER:                  -9.775
REMARK INTRA:                  -1.146
REMARK UNBOUND:                -1.217
REMARK SMILES CN(C(=O)c1ccccn1)c1ccc(-c2ccc(O)c([N+](=O)[O-])c2)[nH]1
REMARK SMILES IDX 11 1 12 2 13 3 14 4 25 5 2 7 1 8 3 9 4 10 5 11 6 12 10 13
REMARK SMILES IDX 7 14 9 15 8 16 15 17 16 18 24 19 17 20 20 21 18 22 21 23
REMARK SMILES IDX 22 24 23 25 19 26
REMARK H PARENT 25 6 19 27
ROOT
ATOM      1  C   UNL     1      21.741   2.583  52.060  1.00  0.00    +0.113 A 
ATOM      2  C   UNL     1      22.388   3.798  52.167  1.00  0.00    +0.047 A 
ATOM      3  C   UNL     1      23.725   3.546  52.565  1.00  0.00    +0.030 A 
ATOM      4  C   UNL     1      23.890   2.178  52.694  1.00  0.00    +0.047 A 
ATOM      5  N   UNL     1      22.666   1.621  52.396  1.00  0.00    -0.341 N 
ATOM      6  H   UNL     1      22.440   0.634  52.410  1.00  0.00    +0.168 HD
ENDROOT
BRANCH   1   7
ATOM      7  N   UNL     1      20.415   2.279  51.702  1.00  0.00    -0.296 N 
ATOM      8  C   UNL     1      19.358   3.273  51.894  1.00  0.00    +0.155 C 
BRANCH   7   9
ATOM      9  C   UNL     1      20.144   0.995  51.164  1.00  0.00    +0.277 C 
ATOM     10  O   UNL     1      20.778   0.500  50.223  1.00  0.00    -0.267 OA
BRANCH   9  11
ATOM     11  C   UNL     1      19.039   0.154  51.738  1.00  0.00    +0.128 A 
ATOM     12  C   UNL     1      17.861   0.011  51.007  1.00  0.00    +0.034 A 
ATOM     13  N   UNL     1      19.261  -0.487  52.915  1.00  0.00    -0.251 NA
ATOM     14  C   UNL     1      16.856  -0.806  51.516  1.00  0.00    +0.004 A 
ATOM     15  C   UNL     1      18.268  -1.277  53.378  1.00  0.00    +0.112 A 
ATOM     16  C   UNL     1      17.061  -1.463  52.724  1.00  0.00    +0.020 A 
ENDBRANCH   9  11
ENDBRANCH   7   9
ENDBRANCH   1   7
BRANCH   4  17
ATOM     17  C   UNL     1      25.061   1.386  53.078  1.00  0.00    +0.005 A 
ATOM     18  C   UNL     1      24.971  -0.014  53.167  1.00  0.00    +0.014 A 
ATOM     19  C   UNL     1      26.286   1.997  53.369  1.00  0.00    +0.100 A 
ATOM     20  C   UNL     1      26.074  -0.795  53.536  1.00  0.00    +0.054 A 
ATOM     21  C   UNL     1      27.384   1.204  53.732  1.00  0.00    +0.311 A 
ATOM     22  C   UNL     1      27.290  -0.183  53.824  1.00  0.00    +0.194 A 
BRANCH  21  23
ATOM     23  N   UNL     1      28.637   1.868  54.017  1.00  0.00    +0.066 N 
ATOM     24  O   UNL     1      29.193   1.578  55.087  1.00  0.00    -0.258 OA
ATOM     25  O   UNL     1      29.033   2.717  53.206  1.00  0.00    -0.258 OA
ENDBRANCH  21  23
BRANCH  22  26
ATOM     26  O   UNL     1      28.358  -0.936  54.212  1.00  0.00    -0.502 OA
ATOM     27  H   UNL     1      28.578  -1.581  53.518  1.00  0.00    +0.293 HD
ENDBRANCH  22  26
ENDBRANCH   4  17
TORSDOF 6
ENDMDL
MODEL 9
REMARK VINA RESULT:    -7.339      1.857      2.492
REMARK INTER + INTRA:         -10.916
REMARK INTER:                  -9.698
REMARK INTRA:                  -1.218
REMARK UNBOUND:                -1.217
REMARK SMILES CN(C(=O)c1ccccn1)c1ccc(-c2ccc(O)c([N+](=O)[O-])c2)[nH]1
REMARK SMILES IDX 11 1 12 2 13 3 14 4 25 5 2 7 1 8 3 9 4 10 5 11 6 12 10 13
REMARK SMILES IDX 7 14 9 15 8 16 15 17 16 18 24 19 17 20 20 21 18 22 21 23
REMARK SMILES IDX 22 24 23 25 19 26
REMARK H PARENT 25 6 19 27
ROOT
ATOM      1  C   UNL     1      22.332   1.823  49.975  1.00  0.00    +0.113 A 
ATOM      2  C   UNL     1      21.189   1.061  50.110  1.00  0.00    +0.047 A 
ATOM      3  C   UNL     1      21.339   0.252  51.266  1.00  0.00    +0.030 A 
ATOM      4  C   UNL     1      22.571   0.529  51.833  1.00  0.00    +0.047 A 
ATOM      5  N   UNL     1      23.156   1.474  51.021  1.00  0.00    -0.341 N 
ATOM      6  H   UNL     1      24.074   1.883  51.147  1.00  0.00    +0.168 HD
ENDROOT
BRANCH   1   7
ATOM      7  N   UNL     1      22.688   2.778  49.004  1.00  0.00    -0.296 N 
ATOM      8  C   UNL     1      22.068   2.740  47.679  1.00  0.00    +0.155 C 
BRANCH   7   9
ATOM      9  C   UNL     1      23.656   3.755  49.350  1.00  0.00    +0.277 C 
ATOM     10  O   UNL     1      24.869   3.521  49.424  1.00  0.00    -0.267 OA
BRANCH   9  11
ATOM     11  C   UNL     1      23.231   5.165  49.650  1.00  0.00    +0.128 A 
ATOM     12  C   UNL     1      23.639   6.182  48.789  1.00  0.00    +0.034 A 
ATOM     13  N   UNL     1      22.411   5.379  50.712  1.00  0.00    -0.251 NA
ATOM     14  C   UNL     1      23.205   7.480  49.039  1.00  0.00    +0.004 A 
ATOM     15  C   UNL     1      22.005   6.650  50.924  1.00  0.00    +0.112 A 
ATOM     16  C   UNL     1      22.373   7.722  50.127  1.00  0.00    +0.020 A 
ENDBRANCH   9  11
ENDBRANCH   7   9
ENDBRANCH   1   7
BRANCH   4  17
ATOM     17  C   UNL     1      23.221  -0.019  53.026  1.00  0.00    +0.005 A 
ATOM     18  C   UNL     1      22.467  -0.716  53.986  1.00  0.00    +0.014 A 
ATOM     19  C   UNL     1      24.595   0.140  53.240  1.00  0.00    +0.100 A 
ATOM     20  C   UNL     1      23.063  -1.247  55.138  1.00  0.00    +0.054 A 
ATOM     21  C   UNL     1      25.180  -0.400  54.394  1.00  0.00    +0.311 A 
ATOM     22  C   UNL     1      24.429  -1.086  55.346  1.00  0.00    +0.194 A 
BRANCH  21  23
ATOM     23  N   UNL     1      26.604  -0.224  54.580  1.00  0.00    +0.066 N 
ATOM     24  O   UNL     1      26.959   0.609  55.426  1.00  0.00    -0.258 OA
ATOM     25  O   UNL     1      27.361  -0.872  53.843  1.00  0.00    -0.258 OA
ENDBRANCH  21  23
BRANCH  22  26
ATOM     26  O   UNL     1      25.009  -1.575  56.480  1.00  0.00    -0.502 OA
ATOM     27  H   UNL     1      24.852  -0.964  57.221  1.00  0.00    +0.293 HD
ENDBRANCH  22  26
ENDBRANCH   4  17
TORSDOF 6
ENDMDL
