REMARK SMILES O=[N+]([O-])c1cc(-c2ncnc3ccc(N/N=N/CCN4CCOCC4)cc23)ccc1O
REMARK SMILES IDX 15 1 14 3 7 4 8 5 27 6 9 7 26 8 11 9 10 10 12 11 13 12 6 13
REMARK SMILES IDX 4 14 5 15 30 16 29 17 28 18 2 19 1 20 3 21 31 22 16 24 17 25
REMARK SMILES IDX 18 26 19 27 20 28 21 29 25 30 22 31 24 32 23 33
REMARK H PARENT 15 2 31 23
ROOT
ATOM      1  N   UNL     1       0.134  -0.259   0.570  1.00  0.00    -0.260 N 
ATOM      2  H   UNL     1      -0.015  -0.462  -0.412  1.00  0.00    +0.192 HD
ENDROOT
BRANCH   1   3
ATOM      3  C   UNL     1      -0.952   0.299   1.263  1.00  0.00    +0.059 A 
ATOM      4  C   UNL     1      -4.729   0.447   1.076  1.00  0.00    +0.082 A 
ATOM      5  N   UNL     1      -5.775   0.902   1.801  1.00  0.00    -0.236 NA
ATOM      6  C   UNL     1      -3.391   0.586   1.484  1.00  0.00    +0.029 A 
ATOM      7  C   UNL     1      -5.470   1.526   2.942  1.00  0.00    +0.223 A 
ATOM      8  C   UNL     1      -2.252   0.094   0.788  1.00  0.00    +0.040 A 
ATOM      9  C   UNL     1      -3.218   1.260   2.699  1.00  0.00    +0.074 A 
ATOM     10  N   UNL     1      -4.239   1.733   3.421  1.00  0.00    -0.236 NA
ATOM     11  C   UNL     1      -1.928   1.435   3.177  1.00  0.00    +0.031 A 
ATOM     12  C   UNL     1      -0.809   0.959   2.483  1.00  0.00    +0.030 A 
BRANCH   4  13
ATOM     13  C   UNL     1      -5.135  -0.198  -0.183  1.00  0.00    +0.008 A 
ATOM     14  C   UNL     1      -6.243  -1.997  -1.370  1.00  0.00    +0.311 A 
ATOM     15  C   UNL     1      -5.848  -1.405  -0.164  1.00  0.00    +0.100 A 
ATOM     16  C   UNL     1      -5.940  -1.419  -2.602  1.00  0.00    +0.194 A 
ATOM     17  C   UNL     1      -5.244  -0.213  -2.630  1.00  0.00    +0.054 A 
ATOM     18  C   UNL     1      -4.851   0.393  -1.429  1.00  0.00    +0.015 A 
BRANCH  14  19
ATOM     19  N   UNL     1      -6.979  -3.241  -1.309  1.00  0.00    +0.066 N 
ATOM     20  O   UNL     1      -8.144  -3.240  -1.730  1.00  0.00    -0.258 OA
ATOM     21  O   UNL     1      -6.400  -4.205  -0.787  1.00  0.00    -0.258 OA
ENDBRANCH  14  19
BRANCH  16  22
ATOM     22  O   UNL     1      -6.294  -2.026  -3.770  1.00  0.00    -0.502 OA
ATOM     23  H   UNL     1      -6.109  -1.438  -4.522  1.00  0.00    +0.293 HD
ENDBRANCH  16  22
ENDBRANCH   4  13
ENDBRANCH   1   3
BRANCH   1  24
ATOM     24  N   UNL     1       1.382   0.131   0.883  1.00  0.00    -0.075 NA
ATOM     25  N   UNL     1       2.089  -0.187  -0.091  1.00  0.00    -0.170 NA
BRANCH  25  26
ATOM     26  C   UNL     1       3.502   0.168   0.129  1.00  0.00    +0.184 C 
BRANCH  26  27
ATOM     27  C   UNL     1       4.304  -0.255  -1.113  1.00  0.00    +0.110 C 
BRANCH  27  28
ATOM     28  N   UNL     1       5.752   0.002  -1.121  1.00  0.00    -0.297 NA
ATOM     29  C   UNL     1       6.093   1.434  -1.045  1.00  0.00    +0.113 C 
ATOM     30  C   UNL     1       6.481  -0.733  -0.071  1.00  0.00    +0.113 C 
ATOM     31  C   UNL     1       7.615   1.639  -1.125  1.00  0.00    +0.175 C 
ATOM     32  C   UNL     1       7.994  -0.477  -0.174  1.00  0.00    +0.175 C 
ATOM     33  O   UNL     1       8.289   0.924  -0.079  1.00  0.00    -0.379 OA
ENDBRANCH  27  28
ENDBRANCH  26  27
ENDBRANCH  25  26
ENDBRANCH   1  24
TORSDOF 8
