MODEL 1
REMARK VINA RESULT:    -9.300      0.000      0.000
REMARK INTER + INTRA:         -11.989
REMARK INTER:                 -10.931
REMARK INTRA:                  -1.058
REMARK UNBOUND:                -1.058
REMARK SMILES Cc1cccc(C=C2C(=O)N(C)c3ncnc(Nc4cccc(Cl)c4)c32)c1
REMARK SMILES IDX 7 1 8 2 9 3 10 4 11 5 12 6 13 7 14 8 15 9 16 10 17 11 26 12
REMARK SMILES IDX 6 13 2 14 3 15 27 16 4 17 5 18 1 19 18 20 19 22 20 23 25 24
REMARK SMILES IDX 21 25 23 26 22 27 24 28
REMARK H PARENT 18 21
ROOT
ATOM      1  C   UNL     1      25.421   0.796  52.080  1.00  0.00    +0.023 C 
ATOM      2  C   UNL     1      24.238   0.465  52.620  1.00  0.00    +0.055 C 
ATOM      3  C   UNL     1      24.012  -0.313  53.896  1.00  0.00    +0.260 C 
ATOM      4  O   UNL     1      24.845  -0.689  54.697  1.00  0.00    -0.269 OA
ATOM      5  N   UNL     1      22.642  -0.508  53.949  1.00  0.00    -0.295 N 
ATOM      6  C   UNL     1      21.937  -1.215  54.982  1.00  0.00    +0.155 C 
ATOM      7  C   UNL     1      21.991   0.085  52.863  1.00  0.00    +0.148 A 
ATOM      8  N   UNL     1      20.670   0.056  52.676  1.00  0.00    -0.218 NA
ATOM      9  C   UNL     1      20.275   0.708  51.579  1.00  0.00    +0.226 A 
ATOM     10  N   UNL     1      21.069   1.371  50.716  1.00  0.00    -0.218 NA
ATOM     11  C   UNL     1      22.399   1.389  50.955  1.00  0.00    +0.144 A 
ATOM     12  C   UNL     1      22.912   0.713  52.040  1.00  0.00    +0.073 A 
ENDROOT
BRANCH   1  13
ATOM     13  C   UNL     1      26.754   0.538  52.636  1.00  0.00    -0.025 A 
ATOM     14  C   UNL     1      28.569  -0.983  53.211  1.00  0.00    -0.051 A 
ATOM     15  C   UNL     1      29.250   0.077  53.820  1.00  0.00    +0.003 A 
ATOM     16  C   UNL     1      27.311  -0.747  52.638  1.00  0.00    +0.011 A 
ATOM     17  C   UNL     1      28.696   1.357  53.835  1.00  0.00    +0.001 A 
ATOM     18  C   UNL     1      27.451   1.586  53.247  1.00  0.00    +0.008 A 
ATOM     19  C   UNL     1      29.150  -2.366  53.215  1.00  0.00    +0.044 C 
ENDBRANCH   1  13
BRANCH  11  20
ATOM     20  N   UNL     1      23.259   2.127  50.108  1.00  0.00    -0.340 N 
ATOM     21  H   UNL     1      23.938   1.495  49.695  1.00  0.00    +0.168 HD
BRANCH  20  22
ATOM     22  C   UNL     1      23.813   3.411  50.318  1.00  0.00    +0.041 A 
ATOM     23  C   UNL     1      23.230   4.357  51.172  1.00  0.00    +0.026 A 
ATOM     24  C   UNL     1      24.918   3.810  49.550  1.00  0.00    +0.046 A 
ATOM     25  C   UNL     1      23.768   5.641  51.306  1.00  0.00    +0.004 A 
ATOM     26  C   UNL     1      25.454   5.092  49.684  1.00  0.00    +0.043 A 
ATOM     27  C   UNL     1      24.888   6.009  50.564  1.00  0.00    +0.020 A 
ATOM     28 Cl   UNL     1      26.825   5.545  48.746  1.00  0.00    -0.084 Cl
ENDBRANCH  20  22
ENDBRANCH  11  20
TORSDOF 3
ENDMDL
MODEL 2
REMARK VINA RESULT:    -9.038      2.508      5.905
REMARK INTER + INTRA:         -11.682
REMARK INTER:                 -10.507
REMARK INTRA:                  -1.174
REMARK UNBOUND:                -1.058
REMARK SMILES Cc1cccc(C=C2C(=O)N(C)c3ncnc(Nc4cccc(Cl)c4)c32)c1
REMARK SMILES IDX 7 1 8 2 9 3 10 4 11 5 12 6 13 7 14 8 15 9 16 10 17 11 26 12
REMARK SMILES IDX 6 13 2 14 3 15 27 16 4 17 5 18 1 19 18 20 19 22 20 23 25 24
REMARK SMILES IDX 21 25 23 26 22 27 24 28
REMARK H PARENT 18 21
ROOT
ATOM      1  C   UNL     1      24.960   3.264  50.982  1.00  0.00    +0.023 C 
ATOM      2  C   UNL     1      23.870   2.571  50.616  1.00  0.00    +0.055 C 
ATOM      3  C   UNL     1      23.112   2.697  49.314  1.00  0.00    +0.260 C 
ATOM      4  O   UNL     1      23.405   3.368  48.344  1.00  0.00    -0.269 OA
ATOM      5  N   UNL     1      22.004   1.881  49.473  1.00  0.00    -0.295 N 
ATOM      6  C   UNL     1      20.968   1.679  48.499  1.00  0.00    +0.155 C 
ATOM      7  C   UNL     1      22.005   1.243  50.718  1.00  0.00    +0.148 A 
ATOM      8  N   UNL     1      21.058   0.394  51.123  1.00  0.00    -0.218 NA
ATOM      9  C   UNL     1      21.281  -0.107  52.341  1.00  0.00    +0.226 A 
ATOM     10  N   UNL     1      22.343   0.153  53.128  1.00  0.00    -0.218 NA
ATOM     11  C   UNL     1      23.287   1.005  52.669  1.00  0.00    +0.144 A 
ATOM     12  C   UNL     1      23.130   1.606  51.440  1.00  0.00    +0.073 A 
ENDROOT
BRANCH   1  13
ATOM     13  C   UNL     1      25.698   4.245  50.179  1.00  0.00    -0.025 A 
ATOM     14  C   UNL     1      25.954   6.483  49.250  1.00  0.00    -0.051 A 
ATOM     15  C   UNL     1      27.076   6.048  48.536  1.00  0.00    +0.003 A 
ATOM     16  C   UNL     1      25.259   5.570  50.054  1.00  0.00    +0.011 A 
ATOM     17  C   UNL     1      27.512   4.727  48.644  1.00  0.00    +0.001 A 
ATOM     18  C   UNL     1      26.824   3.828  49.460  1.00  0.00    +0.008 A 
ATOM     19  C   UNL     1      25.468   7.896  49.118  1.00  0.00    +0.044 C 
ENDBRANCH   1  13
BRANCH  11  20
ATOM     20  N   UNL     1      24.448   1.254  53.438  1.00  0.00    -0.340 N 
ATOM     21  H   UNL     1      24.532   2.254  53.593  1.00  0.00    +0.168 HD
BRANCH  20  22
ATOM     22  C   UNL     1      25.718   0.640  53.340  1.00  0.00    +0.041 A 
ATOM     23  C   UNL     1      25.893  -0.667  52.866  1.00  0.00    +0.026 A 
ATOM     24  C   UNL     1      26.839   1.310  53.853  1.00  0.00    +0.046 A 
ATOM     25  C   UNL     1      27.156  -1.267  52.844  1.00  0.00    +0.004 A 
ATOM     26  C   UNL     1      28.100   0.710  53.832  1.00  0.00    +0.043 A 
ATOM     27  C   UNL     1      28.265  -0.575  53.323  1.00  0.00    +0.020 A 
ATOM     28 Cl   UNL     1      29.462   1.566  54.447  1.00  0.00    -0.084 Cl
ENDBRANCH  20  22
ENDBRANCH  11  20
TORSDOF 3
ENDMDL
MODEL 3
REMARK VINA RESULT:    -8.447      2.322      5.547
REMARK INTER + INTRA:         -10.986
REMARK INTER:                  -9.889
REMARK INTRA:                  -1.097
REMARK UNBOUND:                -1.058
REMARK SMILES Cc1cccc(C=C2C(=O)N(C)c3ncnc(Nc4cccc(Cl)c4)c32)c1
REMARK SMILES IDX 7 1 8 2 9 3 10 4 11 5 12 6 13 7 14 8 15 9 16 10 17 11 26 12
REMARK SMILES IDX 6 13 2 14 3 15 27 16 4 17 5 18 1 19 18 20 19 22 20 23 25 24
REMARK SMILES IDX 21 25 23 26 22 27 24 28
REMARK H PARENT 18 21
ROOT
ATOM      1  C   UNL     1      23.972   2.195  52.616  1.00  0.00    +0.023 C 
ATOM      2  C   UNL     1      22.882   1.417  52.516  1.00  0.00    +0.055 C 
ATOM      3  C   UNL     1      21.728   1.596  51.557  1.00  0.00    +0.260 C 
ATOM      4  O   UNL     1      21.626   2.404  50.655  1.00  0.00    -0.269 OA
ATOM      5  N   UNL     1      20.805   0.635  51.936  1.00  0.00    -0.295 N 
ATOM      6  C   UNL     1      19.524   0.416  51.323  1.00  0.00    +0.155 C 
ATOM      7  C   UNL     1      21.270  -0.136  53.006  1.00  0.00    +0.148 A 
ATOM      8  N   UNL     1      20.583  -1.138  53.559  1.00  0.00    -0.218 NA
ATOM      9  C   UNL     1      21.237  -1.743  54.554  1.00  0.00    +0.226 A 
ATOM     10  N   UNL     1      22.475  -1.444  54.993  1.00  0.00    -0.218 NA
ATOM     11  C   UNL     1      23.141  -0.434  54.391  1.00  0.00    +0.144 A 
ATOM     12  C   UNL     1      22.537   0.280  53.379  1.00  0.00    +0.073 A 
ENDROOT
BRANCH   1  13
ATOM     13  C   UNL     1      24.319   3.346  51.776  1.00  0.00    -0.025 A 
ATOM     14  C   UNL     1      25.686   4.398  50.055  1.00  0.00    -0.051 A 
ATOM     15  C   UNL     1      25.023   5.609  50.282  1.00  0.00    +0.003 A 
ATOM     16  C   UNL     1      25.341   3.276  50.821  1.00  0.00    +0.011 A 
ATOM     17  C   UNL     1      24.013   5.692  51.242  1.00  0.00    +0.001 A 
ATOM     18  C   UNL     1      23.664   4.565  51.988  1.00  0.00    +0.008 A 
ATOM     19  C   UNL     1      26.789   4.311  49.042  1.00  0.00    +0.044 C 
ENDBRANCH   1  13
BRANCH  11  20
ATOM     20  N   UNL     1      24.467  -0.131  54.779  1.00  0.00    -0.340 N 
ATOM     21  H   UNL     1      24.490   0.805  55.172  1.00  0.00    +0.168 HD
BRANCH  20  22
ATOM     22  C   UNL     1      25.673  -0.436  54.108  1.00  0.00    +0.041 A 
ATOM     23  C   UNL     1      25.781  -1.485  53.184  1.00  0.00    +0.026 A 
ATOM     24  C   UNL     1      26.845   0.248  54.467  1.00  0.00    +0.046 A 
ATOM     25  C   UNL     1      27.006  -1.801  52.587  1.00  0.00    +0.004 A 
ATOM     26  C   UNL     1      28.067  -0.069  53.871  1.00  0.00    +0.043 A 
ATOM     27  C   UNL     1      28.153  -1.087  52.927  1.00  0.00    +0.020 A 
ATOM     28 Cl   UNL     1      29.484   0.804  54.315  1.00  0.00    -0.084 Cl
ENDBRANCH  20  22
ENDBRANCH  11  20
TORSDOF 3
ENDMDL
MODEL 4
REMARK VINA RESULT:    -8.432      3.016      5.287
REMARK INTER + INTRA:         -10.969
REMARK INTER:                  -9.748
REMARK INTRA:                  -1.221
REMARK UNBOUND:                -1.058
REMARK SMILES Cc1cccc(C=C2C(=O)N(C)c3ncnc(Nc4cccc(Cl)c4)c32)c1
REMARK SMILES IDX 7 1 8 2 9 3 10 4 11 5 12 6 13 7 14 8 15 9 16 10 17 11 26 12
REMARK SMILES IDX 6 13 2 14 3 15 27 16 4 17 5 18 1 19 18 20 19 22 20 23 25 24
REMARK SMILES IDX 21 25 23 26 22 27 24 28
REMARK H PARENT 18 21
ROOT
ATOM      1  C   UNL     1      24.701   2.159  52.675  1.00  0.00    +0.023 C 
ATOM      2  C   UNL     1      24.668   3.082  51.701  1.00  0.00    +0.055 C 
ATOM      3  C   UNL     1      25.794   3.445  50.760  1.00  0.00    +0.260 C 
ATOM      4  O   UNL     1      26.880   2.909  50.654  1.00  0.00    -0.269 OA
ATOM      5  N   UNL     1      25.316   4.529  50.043  1.00  0.00    -0.295 N 
ATOM      6  C   UNL     1      26.036   5.243  49.025  1.00  0.00    +0.155 C 
ATOM      7  C   UNL     1      24.010   4.862  50.417  1.00  0.00    +0.148 A 
ATOM      8  N   UNL     1      23.309   5.861  49.875  1.00  0.00    -0.218 NA
ATOM      9  C   UNL     1      22.077   5.977  50.377  1.00  0.00    +0.226 A 
ATOM     10  N   UNL     1      21.521   5.188  51.317  1.00  0.00    -0.218 NA
ATOM     11  C   UNL     1      22.262   4.177  51.824  1.00  0.00    +0.144 A 
ATOM     12  C   UNL     1      23.560   3.998  51.401  1.00  0.00    +0.073 A 
ENDROOT
BRANCH   1  13
ATOM     13  C   UNL     1      25.808   1.253  53.001  1.00  0.00    -0.025 A 
ATOM     14  C   UNL     1      26.899  -0.921  52.858  1.00  0.00    -0.051 A 
ATOM     15  C   UNL     1      27.881  -0.476  53.750  1.00  0.00    +0.003 A 
ATOM     16  C   UNL     1      25.855  -0.056  52.503  1.00  0.00    +0.011 A 
ATOM     17  C   UNL     1      27.835   0.821  54.260  1.00  0.00    +0.001 A 
ATOM     18  C   UNL     1      26.801   1.682  53.889  1.00  0.00    +0.008 A 
ATOM     19  C   UNL     1      26.932  -2.323  52.325  1.00  0.00    +0.044 C 
ENDBRANCH   1  13
BRANCH  11  20
ATOM     20  N   UNL     1      21.693   3.289  52.766  1.00  0.00    -0.340 N 
ATOM     21  H   UNL     1      22.339   3.171  53.541  1.00  0.00    +0.168 HD
BRANCH  20  22
ATOM     22  C   UNL     1      20.956   2.105  52.527  1.00  0.00    +0.041 A 
ATOM     23  C   UNL     1      19.903   2.042  51.605  1.00  0.00    +0.026 A 
ATOM     24  C   UNL     1      21.196   0.980  53.331  1.00  0.00    +0.046 A 
ATOM     25  C   UNL     1      19.153   0.874  51.441  1.00  0.00    +0.004 A 
ATOM     26  C   UNL     1      20.446  -0.186  53.167  1.00  0.00    +0.043 A 
ATOM     27  C   UNL     1      19.428  -0.247  52.221  1.00  0.00    +0.020 A 
ATOM     28 Cl   UNL     1      20.778  -1.559  54.152  1.00  0.00    -0.084 Cl
ENDBRANCH  20  22
ENDBRANCH  11  20
TORSDOF 3
ENDMDL
MODEL 5
REMARK VINA RESULT:    -8.352      2.966      6.454
REMARK INTER + INTRA:         -10.874
REMARK INTER:                  -9.786
REMARK INTRA:                  -1.089
REMARK UNBOUND:                -1.058
REMARK SMILES Cc1cccc(C=C2C(=O)N(C)c3ncnc(Nc4cccc(Cl)c4)c32)c1
REMARK SMILES IDX 7 1 8 2 9 3 10 4 11 5 12 6 13 7 14 8 15 9 16 10 17 11 26 12
REMARK SMILES IDX 6 13 2 14 3 15 27 16 4 17 5 18 1 19 18 20 19 22 20 23 25 24
REMARK SMILES IDX 21 25 23 26 22 27 24 28
REMARK H PARENT 18 21
ROOT
ATOM      1  C   UNL     1      23.117   1.550  51.676  1.00  0.00    +0.023 C 
ATOM      2  C   UNL     1      23.182   2.877  51.479  1.00  0.00    +0.055 C 
ATOM      3  C   UNL     1      22.105   3.891  51.792  1.00  0.00    +0.260 C 
ATOM      4  O   UNL     1      21.046   3.704  52.356  1.00  0.00    -0.269 OA
ATOM      5  N   UNL     1      22.593   5.086  51.288  1.00  0.00    -0.295 N 
ATOM      6  C   UNL     1      21.916   6.352  51.333  1.00  0.00    +0.155 C 
ATOM      7  C   UNL     1      23.862   4.930  50.722  1.00  0.00    +0.148 A 
ATOM      8  N   UNL     1      24.564   5.924  50.174  1.00  0.00    -0.218 NA
ATOM      9  C   UNL     1      25.759   5.541  49.716  1.00  0.00    +0.226 A 
ATOM     10  N   UNL     1      26.280   4.301  49.787  1.00  0.00    -0.218 NA
ATOM     11  C   UNL     1      25.541   3.328  50.367  1.00  0.00    +0.144 A 
ATOM     12  C   UNL     1      24.277   3.613  50.836  1.00  0.00    +0.073 A 
ENDROOT
BRANCH   1  13
ATOM     13  C   UNL     1      22.021   0.798  52.297  1.00  0.00    -0.025 A 
ATOM     14  C   UNL     1      19.771  -0.134  52.240  1.00  0.00    -0.051 A 
ATOM     15  C   UNL     1      19.915  -0.538  53.572  1.00  0.00    +0.003 A 
ATOM     16  C   UNL     1      20.823   0.551  51.616  1.00  0.00    +0.011 A 
ATOM     17  C   UNL     1      21.100  -0.284  54.262  1.00  0.00    +0.001 A 
ATOM     18  C   UNL     1      22.149   0.384  53.628  1.00  0.00    +0.008 A 
ATOM     19  C   UNL     1      18.489  -0.383  51.502  1.00  0.00    +0.044 C 
ENDBRANCH   1  13
BRANCH  11  20
ATOM     20  N   UNL     1      26.078   2.029  50.518  1.00  0.00    -0.340 N 
ATOM     21  H   UNL     1      25.512   1.374  49.986  1.00  0.00    +0.168 HD
BRANCH  20  22
ATOM     22  C   UNL     1      26.606   1.423  51.682  1.00  0.00    +0.041 A 
ATOM     23  C   UNL     1      27.154   2.163  52.738  1.00  0.00    +0.026 A 
ATOM     24  C   UNL     1      26.706   0.024  51.736  1.00  0.00    +0.046 A 
ATOM     25  C   UNL     1      27.728   1.530  53.845  1.00  0.00    +0.004 A 
ATOM     26  C   UNL     1      27.279  -0.607  52.842  1.00  0.00    +0.043 A 
ATOM     27  C   UNL     1      27.786   0.140  53.901  1.00  0.00    +0.020 A 
ATOM     28 Cl   UNL     1      27.367  -2.326  52.891  1.00  0.00    -0.084 Cl
ENDBRANCH  20  22
ENDBRANCH  11  20
TORSDOF 3
ENDMDL
MODEL 6
REMARK VINA RESULT:    -8.264      2.845      6.329
REMARK INTER + INTRA:         -10.771
REMARK INTER:                 -10.078
REMARK INTRA:                  -0.693
REMARK UNBOUND:                -1.058
REMARK SMILES Cc1cccc(C=C2C(=O)N(C)c3ncnc(Nc4cccc(Cl)c4)c32)c1
REMARK SMILES IDX 7 1 8 2 9 3 10 4 11 5 12 6 13 7 14 8 15 9 16 10 17 11 26 12
REMARK SMILES IDX 6 13 2 14 3 15 27 16 4 17 5 18 1 19 18 20 19 22 20 23 25 24
REMARK SMILES IDX 21 25 23 26 22 27 24 28
REMARK H PARENT 18 21
ROOT
ATOM      1  C   UNL     1      23.115   2.058  51.697  1.00  0.00    +0.023 C 
ATOM      2  C   UNL     1      22.488   1.088  52.383  1.00  0.00    +0.055 C 
ATOM      3  C   UNL     1      21.023   0.725  52.301  1.00  0.00    +0.260 C 
ATOM      4  O   UNL     1      20.185   1.173  51.543  1.00  0.00    -0.269 OA
ATOM      5  N   UNL     1      20.845  -0.233  53.286  1.00  0.00    -0.295 N 
ATOM      6  C   UNL     1      19.603  -0.882  53.607  1.00  0.00    +0.155 C 
ATOM      7  C   UNL     1      22.040  -0.522  53.951  1.00  0.00    +0.148 A 
ATOM      8  N   UNL     1      22.151  -1.415  54.936  1.00  0.00    -0.218 NA
ATOM      9  C   UNL     1      23.396  -1.536  55.405  1.00  0.00    +0.226 A 
ATOM     10  N   UNL     1      24.483  -0.875  54.962  1.00  0.00    -0.218 NA
ATOM     11  C   UNL     1      24.327   0.007  53.950  1.00  0.00    +0.144 A 
ATOM     12  C   UNL     1      23.075   0.233  53.422  1.00  0.00    +0.073 A 
ENDROOT
BRANCH   1  13
ATOM     13  C   UNL     1      22.538   2.934  50.672  1.00  0.00    -0.025 A 
ATOM     14  C   UNL     1      22.018   3.444  48.346  1.00  0.00    -0.051 A 
ATOM     15  C   UNL     1      21.532   4.695  48.740  1.00  0.00    +0.003 A 
ATOM     16  C   UNL     1      22.537   2.576  49.317  1.00  0.00    +0.011 A 
ATOM     17  C   UNL     1      21.541   5.065  50.085  1.00  0.00    +0.001 A 
ATOM     18  C   UNL     1      22.044   4.189  51.047  1.00  0.00    +0.008 A 
ATOM     19  C   UNL     1      22.032   3.052  46.898  1.00  0.00    +0.044 C 
ENDBRANCH   1  13
BRANCH  11  20
ATOM     20  N   UNL     1      25.454   0.673  53.414  1.00  0.00    -0.340 N 
ATOM     21  H   UNL     1      25.256   0.935  52.452  1.00  0.00    +0.168 HD
BRANCH  20  22
ATOM     22  C   UNL     1      26.823   0.370  53.592  1.00  0.00    +0.041 A 
ATOM     23  C   UNL     1      27.780   1.346  53.902  1.00  0.00    +0.026 A 
ATOM     24  C   UNL     1      27.273  -0.932  53.324  1.00  0.00    +0.046 A 
ATOM     25  C   UNL     1      29.137   1.022  54.006  1.00  0.00    +0.004 A 
ATOM     26  C   UNL     1      28.628  -1.254  53.427  1.00  0.00    +0.043 A 
ATOM     27  C   UNL     1      29.563  -0.283  53.774  1.00  0.00    +0.020 A 
ATOM     28 Cl   UNL     1      29.148  -2.866  53.116  1.00  0.00    -0.084 Cl
ENDBRANCH  20  22
ENDBRANCH  11  20
TORSDOF 3
ENDMDL
MODEL 7
REMARK VINA RESULT:    -8.058      2.807      5.998
REMARK INTER + INTRA:         -10.530
REMARK INTER:                  -9.274
REMARK INTRA:                  -1.256
REMARK UNBOUND:                -1.058
REMARK SMILES Cc1cccc(C=C2C(=O)N(C)c3ncnc(Nc4cccc(Cl)c4)c32)c1
REMARK SMILES IDX 7 1 8 2 9 3 10 4 11 5 12 6 13 7 14 8 15 9 16 10 17 11 26 12
REMARK SMILES IDX 6 13 2 14 3 15 27 16 4 17 5 18 1 19 18 20 19 22 20 23 25 24
REMARK SMILES IDX 21 25 23 26 22 27 24 28
REMARK H PARENT 18 21
ROOT
ATOM      1  C   UNL     1      24.453   4.072  50.870  1.00  0.00    +0.023 C 
ATOM      2  C   UNL     1      23.490   3.312  50.324  1.00  0.00    +0.055 C 
ATOM      3  C   UNL     1      22.845   3.505  48.970  1.00  0.00    +0.260 C 
ATOM      4  O   UNL     1      23.143   4.308  48.109  1.00  0.00    -0.269 OA
ATOM      5  N   UNL     1      21.831   2.562  48.929  1.00  0.00    -0.295 N 
ATOM      6  C   UNL     1      20.918   2.361  47.838  1.00  0.00    +0.155 C 
ATOM      7  C   UNL     1      21.793   1.790  50.095  1.00  0.00    +0.148 A 
ATOM      8  N   UNL     1      20.920   0.803  50.310  1.00  0.00    -0.218 NA
ATOM      9  C   UNL     1      21.089   0.194  51.487  1.00  0.00    +0.226 A 
ATOM     10  N   UNL     1      22.037   0.475  52.402  1.00  0.00    -0.218 NA
ATOM     11  C   UNL     1      22.912   1.469  52.133  1.00  0.00    +0.144 A 
ATOM     12  C   UNL     1      22.797   2.187  50.963  1.00  0.00    +0.073 A 
ENDROOT
BRANCH   1  13
ATOM     13  C   UNL     1      25.140   5.212  50.252  1.00  0.00    -0.025 A 
ATOM     14  C   UNL     1      26.949   6.144  48.912  1.00  0.00    -0.051 A 
ATOM     15  C   UNL     1      26.482   7.432  49.196  1.00  0.00    +0.003 A 
ATOM     16  C   UNL     1      26.283   5.040  49.461  1.00  0.00    +0.011 A 
ATOM     17  C   UNL     1      25.353   7.614  49.994  1.00  0.00    +0.001 A 
ATOM     18  C   UNL     1      24.685   6.508  50.523  1.00  0.00    +0.008 A 
ATOM     19  C   UNL     1      28.178   5.946  48.075  1.00  0.00    +0.044 C 
ENDBRANCH   1  13
BRANCH  11  20
ATOM     20  N   UNL     1      23.960   1.752  53.039  1.00  0.00    -0.340 N 
ATOM     21  H   UNL     1      23.954   2.746  53.251  1.00  0.00    +0.168 HD
BRANCH  20  22
ATOM     22  C   UNL     1      25.274   1.231  53.057  1.00  0.00    +0.041 A 
ATOM     23  C   UNL     1      26.408   2.041  53.206  1.00  0.00    +0.026 A 
ATOM     24  C   UNL     1      25.469  -0.132  52.787  1.00  0.00    +0.046 A 
ATOM     25  C   UNL     1      27.696   1.500  53.153  1.00  0.00    +0.004 A 
ATOM     26  C   UNL     1      26.756  -0.671  52.732  1.00  0.00    +0.043 A 
ATOM     27  C   UNL     1      27.873   0.138  52.921  1.00  0.00    +0.020 A 
ATOM     28 Cl   UNL     1      26.965  -2.352  52.422  1.00  0.00    -0.084 Cl
ENDBRANCH  20  22
ENDBRANCH  11  20
TORSDOF 3
ENDMDL
MODEL 8
REMARK VINA RESULT:    -7.996      1.964      2.529
REMARK INTER + INTRA:         -10.456
REMARK INTER:                  -9.524
REMARK INTRA:                  -0.933
REMARK UNBOUND:                -1.058
REMARK SMILES Cc1cccc(C=C2C(=O)N(C)c3ncnc(Nc4cccc(Cl)c4)c32)c1
REMARK SMILES IDX 7 1 8 2 9 3 10 4 11 5 12 6 13 7 14 8 15 9 16 10 17 11 26 12
REMARK SMILES IDX 6 13 2 14 3 15 27 16 4 17 5 18 1 19 18 20 19 22 20 23 25 24
REMARK SMILES IDX 21 25 23 26 22 27 24 28
REMARK H PARENT 18 21
ROOT
ATOM      1  C   UNL     1      24.577   1.856  52.667  1.00  0.00    +0.023 C 
ATOM      2  C   UNL     1      23.257   1.666  52.821  1.00  0.00    +0.055 C 
ATOM      3  C   UNL     1      22.579   0.427  53.358  1.00  0.00    +0.260 C 
ATOM      4  O   UNL     1      23.101  -0.564  53.830  1.00  0.00    -0.269 OA
ATOM      5  N   UNL     1      21.225   0.668  53.192  1.00  0.00    -0.295 N 
ATOM      6  C   UNL     1      20.164  -0.234  53.546  1.00  0.00    +0.155 C 
ATOM      7  C   UNL     1      20.988   1.929  52.635  1.00  0.00    +0.148 A 
ATOM      8  N   UNL     1      19.773   2.417  52.379  1.00  0.00    -0.218 NA
ATOM      9  C   UNL     1      19.793   3.650  51.867  1.00  0.00    +0.226 A 
ATOM     10  N   UNL     1      20.889   4.396  51.628  1.00  0.00    -0.218 NA
ATOM     11  C   UNL     1      22.099   3.869  51.920  1.00  0.00    +0.144 A 
ATOM     12  C   UNL     1      22.187   2.587  52.416  1.00  0.00    +0.073 A 
ENDROOT
BRANCH   1  13
ATOM     13  C   UNL     1      25.656   0.937  53.047  1.00  0.00    -0.025 A 
ATOM     14  C   UNL     1      27.336   0.155  54.629  1.00  0.00    -0.051 A 
ATOM     15  C   UNL     1      27.791  -0.763  53.676  1.00  0.00    +0.003 A 
ATOM     16  C   UNL     1      26.279   1.016  54.298  1.00  0.00    +0.011 A 
ATOM     17  C   UNL     1      27.185  -0.838  52.422  1.00  0.00    +0.001 A 
ATOM     18  C   UNL     1      26.122   0.010  52.107  1.00  0.00    +0.008 A 
ATOM     19  C   UNL     1      28.001   0.256  55.969  1.00  0.00    +0.044 C 
ENDBRANCH   1  13
BRANCH  11  20
ATOM     20  N   UNL     1      23.269   4.644  51.743  1.00  0.00    -0.340 N 
ATOM     21  H   UNL     1      23.493   5.108  52.619  1.00  0.00    +0.168 HD
BRANCH  20  22
ATOM     22  C   UNL     1      23.642   5.435  50.633  1.00  0.00    +0.041 A 
ATOM     23  C   UNL     1      23.499   4.998  49.309  1.00  0.00    +0.026 A 
ATOM     24  C   UNL     1      24.300   6.655  50.856  1.00  0.00    +0.046 A 
ATOM     25  C   UNL     1      23.939   5.780  48.236  1.00  0.00    +0.004 A 
ATOM     26  C   UNL     1      24.740   7.434  49.784  1.00  0.00    +0.043 A 
ATOM     27  C   UNL     1      24.557   7.005  48.473  1.00  0.00    +0.020 A 
ATOM     28 Cl   UNL     1      25.524   8.937  50.088  1.00  0.00    -0.084 Cl
ENDBRANCH  20  22
ENDBRANCH  11  20
TORSDOF 3
ENDMDL
MODEL 9
REMARK VINA RESULT:    -7.624      3.478      7.118
REMARK INTER + INTRA:         -10.019
REMARK INTER:                  -8.924
REMARK INTRA:                  -1.095
REMARK UNBOUND:                -1.058
REMARK SMILES Cc1cccc(C=C2C(=O)N(C)c3ncnc(Nc4cccc(Cl)c4)c32)c1
REMARK SMILES IDX 7 1 8 2 9 3 10 4 11 5 12 6 13 7 14 8 15 9 16 10 17 11 26 12
REMARK SMILES IDX 6 13 2 14 3 15 27 16 4 17 5 18 1 19 18 20 19 22 20 23 25 24
REMARK SMILES IDX 21 25 23 26 22 27 24 28
REMARK H PARENT 18 21
ROOT
ATOM      1  C   UNL     1      22.370   3.075  51.553  1.00  0.00    +0.023 C 
ATOM      2  C   UNL     1      23.448   2.405  51.994  1.00  0.00    +0.055 C 
ATOM      3  C   UNL     1      24.890   2.673  51.631  1.00  0.00    +0.260 C 
ATOM      4  O   UNL     1      25.333   3.586  50.963  1.00  0.00    -0.269 OA
ATOM      5  N   UNL     1      25.598   1.642  52.226  1.00  0.00    -0.295 N 
ATOM      6  C   UNL     1      27.021   1.454  52.154  1.00  0.00    +0.155 C 
ATOM      7  C   UNL     1      24.759   0.781  52.939  1.00  0.00    +0.148 A 
ATOM      8  N   UNL     1      25.185  -0.288  53.615  1.00  0.00    -0.218 NA
ATOM      9  C   UNL     1      24.204  -0.949  54.235  1.00  0.00    +0.226 A 
ATOM     10  N   UNL     1      22.898  -0.616  54.243  1.00  0.00    -0.218 NA
ATOM     11  C   UNL     1      22.515   0.485  53.560  1.00  0.00    +0.144 A 
ATOM     12  C   UNL     1      23.446   1.214  52.853  1.00  0.00    +0.073 A 
ENDROOT
BRANCH   1  13
ATOM     13  C   UNL     1      22.355   4.252  50.679  1.00  0.00    -0.025 A 
ATOM     14  C   UNL     1      22.357   5.266  48.463  1.00  0.00    -0.051 A 
ATOM     15  C   UNL     1      22.447   6.532  49.053  1.00  0.00    +0.003 A 
ATOM     16  C   UNL     1      22.330   4.130  49.284  1.00  0.00    +0.011 A 
ATOM     17  C   UNL     1      22.486   6.662  50.441  1.00  0.00    +0.001 A 
ATOM     18  C   UNL     1      22.442   5.526  51.252  1.00  0.00    +0.008 A 
ATOM     19  C   UNL     1      22.340   5.120  46.970  1.00  0.00    +0.044 C 
ENDBRANCH   1  13
BRANCH  11  20
ATOM     20  N   UNL     1      21.165   0.904  53.596  1.00  0.00    -0.340 N 
ATOM     21  H   UNL     1      20.947   1.236  54.531  1.00  0.00    +0.168 HD
BRANCH  20  22
ATOM     22  C   UNL     1      20.038   0.301  52.990  1.00  0.00    +0.041 A 
ATOM     23  C   UNL     1      19.376   0.865  51.892  1.00  0.00    +0.026 A 
ATOM     24  C   UNL     1      19.476  -0.841  53.583  1.00  0.00    +0.046 A 
ATOM     25  C   UNL     1      18.226   0.276  51.358  1.00  0.00    +0.004 A 
ATOM     26  C   UNL     1      18.327  -1.428  53.050  1.00  0.00    +0.043 A 
ATOM     27  C   UNL     1      17.701  -0.878  51.935  1.00  0.00    +0.020 A 
ATOM     28 Cl   UNL     1      17.673  -2.842  53.784  1.00  0.00    -0.084 Cl
ENDBRANCH  20  22
ENDBRANCH  11  20
TORSDOF 3
ENDMDL
