REMARK SMILES O=[N+]([O-])c1cc(-c2ccc(O)c([N+](=O)[O-])c2)ccc1O
REMARK SMILES IDX 4 1 5 2 6 3 17 4 18 5 19 6 2 7 1 8 3 9 20 10 7 12 8 13 16 14
REMARK SMILES IDX 9 15 12 16 10 17 13 18 14 19 15 20 11 21
REMARK H PARENT 20 11 11 22
ROOT
ATOM      1  C   UNL     1      -2.949   0.475   0.161  1.00  0.00    +0.311 A 
ATOM      2  C   UNL     1      -1.556   0.637   0.274  1.00  0.00    +0.098 A 
ATOM      3  C   UNL     1      -0.699  -0.477   0.251  1.00  0.00    -0.011 A 
ATOM      4  C   UNL     1      -1.276  -1.751   0.111  1.00  0.00    +0.013 A 
ATOM      5  C   UNL     1      -2.660  -1.912  -0.002  1.00  0.00    +0.054 A 
ATOM      6  C   UNL     1      -3.502  -0.803   0.022  1.00  0.00    +0.194 A 
ENDROOT
BRANCH   1   7
ATOM      7  N   UNL     1      -3.801   1.666   0.194  1.00  0.00    +0.066 N 
ATOM      8  O   UNL     1      -5.028   1.494   0.102  1.00  0.00    -0.258 OA
ATOM      9  O   UNL     1      -3.256   2.771   0.311  1.00  0.00    -0.258 OA
ENDBRANCH   1   7
BRANCH   6  10
ATOM     10  O   UNL     1      -4.835  -1.083  -0.095  1.00  0.00    -0.502 OA
ATOM     11  H   UNL     1      -5.357  -0.253  -0.066  1.00  0.00    +0.293 HD
ENDBRANCH   6  10
BRANCH   3  12
ATOM     12  C   UNL     1       0.759  -0.317   0.371  1.00  0.00    -0.011 A 
ATOM     13  C   UNL     1       1.484  -1.017   1.349  1.00  0.00    +0.013 A 
ATOM     14  C   UNL     1       1.467   0.540  -0.490  1.00  0.00    +0.098 A 
ATOM     15  C   UNL     1       2.870  -0.871   1.469  1.00  0.00    +0.054 A 
ATOM     16  C   UNL     1       2.862   0.687  -0.370  1.00  0.00    +0.311 A 
ATOM     17  C   UNL     1       3.564  -0.021   0.612  1.00  0.00    +0.194 A 
BRANCH  16  18
ATOM     18  N   UNL     1       3.556   1.589  -1.292  1.00  0.00    +0.066 N 
ATOM     19  O   UNL     1       4.788   1.693  -1.171  1.00  0.00    -0.258 OA
ATOM     20  O   UNL     1       2.881   2.194  -2.136  1.00  0.00    -0.258 OA
ENDBRANCH  16  18
BRANCH  17  21
ATOM     21  O   UNL     1       4.914   0.042   0.822  1.00  0.00    -0.502 OA
ATOM     22  H   UNL     1       5.327   0.656   0.178  1.00  0.00    +0.293 HD
ENDBRANCH  17  21
ENDBRANCH   3  12
TORSDOF 5
