REMARK SMILES CCN(c1ccccn1)c1cc(C)c(-c2ccccc2)[nH]1
REMARK SMILES IDX 3 1 2 2 1 3 4 4 5 5 9 6 6 7 8 8 7 9 10 10 11 11 21 12 12 13
REMARK SMILES IDX 14 14 13 16 15 17 16 18 20 19 17 20 19 21 18 22
REMARK H PARENT 21 15
ROOT
ATOM      1  N   UNL     1       1.809   0.584   0.869  1.00  0.00    -0.313 N 
ENDROOT
BRANCH   1   2
ATOM      2  C   UNL     1       2.538   1.596   1.649  1.00  0.00    +0.122 C 
ATOM      3  C   UNL     1       3.642   2.244   0.821  1.00  0.00    +0.028 C 
ENDBRANCH   1   2
BRANCH   1   4
ATOM      4  C   UNL     1       2.483  -0.657   0.735  1.00  0.00    +0.133 A 
ATOM      5  C   UNL     1       2.238  -1.491  -0.363  1.00  0.00    +0.047 A 
ATOM      6  N   UNL     1       3.394  -1.024   1.669  1.00  0.00    -0.239 NA
ATOM      7  C   UNL     1       2.905  -2.710  -0.487  1.00  0.00    +0.005 A 
ATOM      8  C   UNL     1       4.029  -2.211   1.533  1.00  0.00    +0.113 A 
ATOM      9  C   UNL     1       3.817  -3.083   0.485  1.00  0.00    +0.020 A 
ENDBRANCH   1   4
BRANCH   1  10
ATOM     10  C   UNL     1       0.594   0.907   0.338  1.00  0.00    +0.112 A 
ATOM     11  C   UNL     1       0.067   2.099  -0.111  1.00  0.00    +0.050 A 
ATOM     12  N   UNL     1      -0.413  -0.021   0.254  1.00  0.00    -0.341 N 
ATOM     13  C   UNL     1      -1.276   1.869  -0.533  1.00  0.00    -0.023 A 
ATOM     14  C   UNL     1      -1.549   0.527  -0.299  1.00  0.00    +0.050 A 
ATOM     15  H   UNL     1      -0.328  -0.978   0.562  1.00  0.00    +0.168 HD
ATOM     16  C   UNL     1      -2.196   2.895  -1.092  1.00  0.00    +0.047 C 
BRANCH  14  17
ATOM     17  C   UNL     1      -2.751  -0.271  -0.534  1.00  0.00    -0.002 A 
ATOM     18  C   UNL     1      -3.366  -0.275  -1.792  1.00  0.00    +0.010 A 
ATOM     19  C   UNL     1      -3.300  -1.051   0.492  1.00  0.00    +0.010 A 
ATOM     20  C   UNL     1      -4.509  -1.044  -2.020  1.00  0.00    +0.001 A 
ATOM     21  C   UNL     1      -4.444  -1.819   0.264  1.00  0.00    +0.001 A 
ATOM     22  C   UNL     1      -5.047  -1.816  -0.993  1.00  0.00    +0.000 A 
ENDBRANCH  14  17
ENDBRANCH   1  10
TORSDOF 4
