REMARK SMILES CN(CC/N=N/Nc1ccc2ncnc(-c3cccc(Cl)c3)c2c1)c1ccc(O)cc1
REMARK SMILES IDX 4 1 3 2 2 3 1 4 25 5 26 6 31 7 27 8 30 9 28 10 29 11 5 13
REMARK SMILES IDX 6 14 7 15 8 17 9 18 24 19 10 20 23 21 11 22 15 23 12 24
REMARK SMILES IDX 14 25 13 26 16 27 17 28 22 29 18 30 20 31 19 32 21 33
REMARK H PARENT 29 12 7 16
ROOT
ATOM      1  C   UNL     1       2.438   2.819   2.036  1.00  0.00    +0.190 C 
ENDROOT
BRANCH   1   2
ATOM      2  C   UNL     1       3.763   2.769   1.267  1.00  0.00    +0.142 C 
BRANCH   2   3
ATOM      3  N   UNL     1       4.278   1.395   1.129  1.00  0.00    -0.373 N 
ATOM      4  C   UNL     1       5.030   0.867   2.268  1.00  0.00    +0.143 C 
BRANCH   3   5
ATOM      5  C   UNL     1       4.202   0.679  -0.063  1.00  0.00    +0.037 A 
ATOM      6  C   UNL     1       3.385   1.078  -1.136  1.00  0.00    +0.030 A 
ATOM      7  C   UNL     1       4.940  -0.506  -0.266  1.00  0.00    +0.030 A 
ATOM      8  C   UNL     1       3.310   0.353  -2.334  1.00  0.00    +0.048 A 
ATOM      9  C   UNL     1       4.874  -1.244  -1.458  1.00  0.00    +0.048 A 
ATOM     10  C   UNL     1       4.057  -0.805  -2.487  1.00  0.00    +0.115 A 
BRANCH  10  11
ATOM     11  O   UNL     1       3.957  -1.487  -3.665  1.00  0.00    -0.508 OA
ATOM     12  H   UNL     1       4.546  -2.258  -3.621  1.00  0.00    +0.293 HD
ENDBRANCH  10  11
ENDBRANCH   3   5
ENDBRANCH   2   3
ENDBRANCH   1   2
BRANCH   1  13
ATOM     13  N   UNL     1       1.358   2.250   1.219  1.00  0.00    -0.169 NA
ATOM     14  N   UNL     1       0.378   1.912   1.907  1.00  0.00    -0.075 NA
BRANCH  14  15
ATOM     15  N   UNL     1      -0.495   1.378   1.034  1.00  0.00    -0.260 N 
ATOM     16  H   UNL     1      -0.077   1.085   0.157  1.00  0.00    +0.192 HD
BRANCH  15  17
ATOM     17  C   UNL     1      -1.519   0.542   1.510  1.00  0.00    +0.059 A 
ATOM     18  C   UNL     1      -1.837   0.424   2.860  1.00  0.00    +0.030 A 
ATOM     19  C   UNL     1      -2.351  -0.106   0.591  1.00  0.00    +0.040 A 
ATOM     20  C   UNL     1      -2.907  -0.377   3.275  1.00  0.00    +0.031 A 
ATOM     21  C   UNL     1      -3.457  -0.900   1.006  1.00  0.00    +0.029 A 
ATOM     22  C   UNL     1      -3.718  -1.048   2.372  1.00  0.00    +0.074 A 
ATOM     23  C   UNL     1      -4.348  -1.581   0.157  1.00  0.00    +0.082 A 
ATOM     24  N   UNL     1      -4.718  -1.798   2.843  1.00  0.00    -0.236 NA
ATOM     25  N   UNL     1      -5.353  -2.360   0.616  1.00  0.00    -0.236 NA
ATOM     26  C   UNL     1      -5.482  -2.426   1.942  1.00  0.00    +0.223 A 
BRANCH  23  27
ATOM     27  C   UNL     1      -4.290  -1.507  -1.312  1.00  0.00    +0.002 A 
ATOM     28  C   UNL     1      -4.518  -0.296  -1.989  1.00  0.00    +0.010 A 
ATOM     29  C   UNL     1      -4.030  -2.655  -2.075  1.00  0.00    +0.030 A 
ATOM     30  C   UNL     1      -4.467  -0.230  -3.383  1.00  0.00    +0.002 A 
ATOM     31  C   UNL     1      -3.979  -2.584  -3.467  1.00  0.00    +0.041 A 
ATOM     32  C   UNL     1      -4.193  -1.377  -4.123  1.00  0.00    +0.020 A 
ATOM     33 Cl   UNL     1      -3.647  -3.998  -4.383  1.00  0.00    -0.084 Cl
ENDBRANCH  23  27
ENDBRANCH  15  17
ENDBRANCH  14  15
ENDBRANCH   1  13
TORSDOF 8
