REMARK SMILES Cc1cccc(N(C)c2ccc(-c3cc(O)ccc3[N+](=O)[O-])[nH]2)c1
REMARK SMILES IDX 9 1 10 2 11 3 12 4 23 5 7 7 8 8 6 9 2 10 3 11 24 12 4 13
REMARK SMILES IDX 5 14 1 15 13 16 14 17 19 18 15 19 18 20 17 21 20 22 21 23
REMARK SMILES IDX 22 24 16 25
REMARK H PARENT 23 6 16 26
ROOT
ATOM      1  C   UNL     1      -0.170   1.116  -1.384  1.00  0.00    +0.110 A 
ATOM      2  C   UNL     1       0.728   2.001  -1.945  1.00  0.00    +0.047 A 
ATOM      3  C   UNL     1       1.999   1.756  -1.367  1.00  0.00    +0.031 A 
ATOM      4  C   UNL     1       1.871   0.703  -0.479  1.00  0.00    +0.054 A 
ATOM      5  N   UNL     1       0.548   0.319  -0.524  1.00  0.00    -0.341 N 
ATOM      6  H   UNL     1       0.141  -0.450  -0.010  1.00  0.00    +0.168 HD
ENDROOT
BRANCH   1   7
ATOM      7  N   UNL     1      -1.503   0.889  -1.577  1.00  0.00    -0.331 N 
ATOM      8  C   UNL     1      -2.208   1.707  -2.572  1.00  0.00    +0.152 C 
BRANCH   7   9
ATOM      9  C   UNL     1      -2.373   0.476  -0.529  1.00  0.00    +0.042 A 
ATOM     10  C   UNL     1      -4.239  -0.916   0.227  1.00  0.00    -0.049 A 
ATOM     11  C   UNL     1      -4.099  -0.392   1.517  1.00  0.00    +0.003 A 
ATOM     12  C   UNL     1      -3.366  -0.484  -0.782  1.00  0.00    +0.029 A 
ATOM     13  C   UNL     1      -3.121   0.564   1.785  1.00  0.00    +0.002 A 
ATOM     14  C   UNL     1      -2.267   0.995   0.770  1.00  0.00    +0.026 A 
ATOM     15  C   UNL     1      -5.265  -1.972  -0.059  1.00  0.00    +0.044 C 
ENDBRANCH   7   9
ENDBRANCH   1   7
BRANCH   4  16
ATOM     16  C   UNL     1       2.852   0.041   0.381  1.00  0.00    +0.079 A 
ATOM     17  C   UNL     1       2.552  -0.141   1.740  1.00  0.00    +0.063 A 
ATOM     18  C   UNL     1       4.102  -0.416  -0.064  1.00  0.00    +0.278 A 
ATOM     19  C   UNL     1       3.471  -0.748   2.599  1.00  0.00    +0.116 A 
ATOM     20  C   UNL     1       5.031  -1.025   0.794  1.00  0.00    +0.090 A 
ATOM     21  C   UNL     1       4.708  -1.191   2.140  1.00  0.00    +0.053 A 
BRANCH  18  22
ATOM     22  N   UNL     1       4.472  -0.310  -1.459  1.00  0.00    +0.063 N 
ATOM     23  O   UNL     1       5.268   0.590  -1.759  1.00  0.00    -0.258 OA
ATOM     24  O   UNL     1       4.014  -1.163  -2.230  1.00  0.00    -0.258 OA
ENDBRANCH  18  22
BRANCH  19  25
ATOM     25  O   UNL     1       3.110  -0.889   3.906  1.00  0.00    -0.508 OA
ATOM     26  H   UNL     1       3.837  -1.310   4.395  1.00  0.00    +0.293 HD
ENDBRANCH  19  25
ENDBRANCH   4  16
TORSDOF 5
