REMARK SMILES CCN(C(=O)c1cccc(Cl)c1)c1[nH]c(C)cc1C
REMARK SMILES IDX 4 1 5 2 3 3 2 4 1 5 13 6 14 7 18 8 15 9 17 10 19 12 16 13
REMARK SMILES IDX 6 14 7 15 12 16 8 17 10 18 9 19 11 20
REMARK H PARENT 14 11
ROOT
ATOM      1  C   UNL     1      -1.167   1.499  -0.005  1.00  0.00    +0.259 C 
ATOM      2  O   UNL     1      -1.574   2.653   0.139  1.00  0.00    -0.269 OA
ENDROOT
BRANCH   1   3
ATOM      3  N   UNL     1      -0.097   1.157  -0.857  1.00  0.00    -0.294 N 
BRANCH   3   4
ATOM      4  C   UNL     1       0.239   2.158  -1.874  1.00  0.00    +0.124 C 
ATOM      5  C   UNL     1       1.357   3.090  -1.427  1.00  0.00    +0.028 C 
ENDBRANCH   3   4
BRANCH   3   6
ATOM      6  C   UNL     1       0.765   0.080  -0.565  1.00  0.00    +0.116 A 
ATOM      7  N   UNL     1       0.898  -0.429   0.712  1.00  0.00    -0.345 N 
ATOM      8  C   UNL     1       1.669  -0.616  -1.363  1.00  0.00    -0.008 A 
ATOM      9  C   UNL     1       1.815  -1.446   0.745  1.00  0.00    +0.014 A 
ATOM     10  C   UNL     1       2.311  -1.581  -0.529  1.00  0.00    +0.028 A 
ATOM     11  H   UNL     1       0.425  -0.072   1.529  1.00  0.00    +0.168 HD
ATOM     12  C   UNL     1       1.942  -0.475  -2.818  1.00  0.00    +0.048 C 
ATOM     13  C   UNL     1       2.130  -2.173   1.998  1.00  0.00    +0.064 C 
ENDBRANCH   3   6
ENDBRANCH   1   3
BRANCH   1  14
ATOM     14  C   UNL     1      -1.940   0.431   0.688  1.00  0.00    +0.041 A 
ATOM     15  C   UNL     1      -2.232  -0.787   0.059  1.00  0.00    +0.014 A 
ATOM     16  C   UNL     1      -2.427   0.688   1.975  1.00  0.00    +0.034 A 
ATOM     17  C   UNL     1      -2.971  -1.761   0.731  1.00  0.00    +0.002 A 
ATOM     18  C   UNL     1      -3.165  -0.289   2.637  1.00  0.00    +0.041 A 
ATOM     19  C   UNL     1      -3.434  -1.513   2.024  1.00  0.00    +0.020 A 
ATOM     20 Cl   UNL     1      -3.747   0.011   4.228  1.00  0.00    -0.084 Cl
ENDBRANCH   1  14
TORSDOF 4
