REMARK SMILES Cc1cc(C)c(-c2ccc(-c3cc(O)ccc3[N+](=O)[O-])[nH]2)[nH]1
REMARK SMILES IDX 11 1 12 2 13 3 15 4 16 5 17 6 10 7 7 8 8 9 21 10 9 11 6 13
REMARK SMILES IDX 2 14 3 15 22 16 4 17 1 18 5 20 18 21 19 22 20 23 14 24
REMARK H PARENT 21 12 22 19 14 25
ROOT
ATOM      1  C   UNL     1       2.605  -0.010  -0.096  1.00  0.00    +0.079 A 
ATOM      2  C   UNL     1       2.966   0.586   1.123  1.00  0.00    +0.063 A 
ATOM      3  C   UNL     1       4.224   1.169   1.286  1.00  0.00    +0.116 A 
ATOM      4  C   UNL     1       5.157   1.177   0.254  1.00  0.00    +0.053 A 
ATOM      5  C   UNL     1       4.824   0.594  -0.967  1.00  0.00    +0.090 A 
ATOM      6  C   UNL     1       3.556   0.013  -1.126  1.00  0.00    +0.278 A 
ENDROOT
BRANCH   1   7
ATOM      7  C   UNL     1       1.286  -0.630  -0.218  1.00  0.00    +0.053 A 
ATOM      8  C   UNL     1      -0.970  -0.773  -0.109  1.00  0.00    +0.063 A 
ATOM      9  C   UNL     1      -0.499  -1.979  -0.581  1.00  0.00    +0.030 A 
ATOM     10  N   UNL     1       0.119   0.037   0.095  1.00  0.00    -0.353 N 
ATOM     11  C   UNL     1       0.914  -1.895  -0.641  1.00  0.00    +0.029 A 
ATOM     12  H   UNL     1       0.067   1.004   0.382  1.00  0.00    +0.167 HD
BRANCH   8  13
ATOM     13  C   UNL     1      -2.312  -0.344   0.127  1.00  0.00    +0.065 A 
ATOM     14  C   UNL     1      -4.025   0.587   1.257  1.00  0.00    +0.012 A 
ATOM     15  C   UNL     1      -4.517   0.124   0.056  1.00  0.00    +0.026 A 
ATOM     16  N   UNL     1      -2.685   0.290   1.287  1.00  0.00    -0.357 N 
ATOM     17  C   UNL     1      -3.442  -0.472  -0.664  1.00  0.00    -0.024 A 
ATOM     18  C   UNL     1      -4.699   1.273   2.385  1.00  0.00    +0.064 C 
ATOM     19  H   UNL     1      -2.069   0.474   2.066  1.00  0.00    +0.166 HD
ATOM     20  C   UNL     1      -3.537  -1.095  -2.012  1.00  0.00    +0.047 C 
ENDBRANCH   8  13
ENDBRANCH   1   7
BRANCH   6  21
ATOM     21  N   UNL     1       3.245  -0.535  -2.429  1.00  0.00    +0.063 N 
ATOM     22  O   UNL     1       3.756  -1.628  -2.712  1.00  0.00    -0.258 OA
ATOM     23  O   UNL     1       2.544   0.156  -3.178  1.00  0.00    -0.258 OA
ENDBRANCH   6  21
BRANCH   3  24
ATOM     24  O   UNL     1       4.503   1.728   2.498  1.00  0.00    -0.508 OA
ATOM     25  H   UNL     1       5.414   2.067   2.490  1.00  0.00    +0.293 HD
ENDBRANCH   3  24
TORSDOF 4
