REMARK SMILES Cc1cccc(C(=O)N(C)c2ccc(-c3cc(O)ccc3[N+](=O)[O-])[nH]2)c1
REMARK SMILES IDX 11 1 12 2 13 3 14 4 25 5 9 7 10 8 7 9 8 10 6 11 2 12 3 13
REMARK SMILES IDX 26 14 4 15 5 16 1 17 15 18 16 19 21 20 17 21 20 22 19 23
REMARK SMILES IDX 22 24 23 25 24 26 18 27
REMARK H PARENT 25 6 18 28
ROOT
ATOM      1  C   UNL     1      -0.249  -0.681  -0.191  1.00  0.00    +0.113 A 
ATOM      2  C   UNL     1      -0.707  -1.642  -1.073  1.00  0.00    +0.047 A 
ATOM      3  C   UNL     1      -2.066  -1.369  -1.371  1.00  0.00    +0.031 A 
ATOM      4  C   UNL     1      -2.428  -0.232  -0.679  1.00  0.00    +0.054 A 
ATOM      5  N   UNL     1      -1.314   0.166   0.028  1.00  0.00    -0.341 N 
ATOM      6  H   UNL     1      -1.294   0.973   0.632  1.00  0.00    +0.168 HD
ENDROOT
BRANCH   1   7
ATOM      7  N   UNL     1       1.006  -0.473   0.414  1.00  0.00    -0.297 N 
ATOM      8  C   UNL     1       1.210   0.627   1.362  1.00  0.00    +0.155 C 
BRANCH   7   9
ATOM      9  C   UNL     1       2.053  -1.369   0.103  1.00  0.00    +0.259 C 
ATOM     10  O   UNL     1       1.951  -2.463  -0.448  1.00  0.00    -0.269 OA
BRANCH   9  11
ATOM     11  C   UNL     1       3.436  -0.971   0.457  1.00  0.00    +0.040 A 
ATOM     12  C   UNL     1       5.317   0.544   0.228  1.00  0.00    -0.050 A 
ATOM     13  C   UNL     1       6.045  -0.263   1.113  1.00  0.00    +0.003 A 
ATOM     14  C   UNL     1       4.002   0.186  -0.094  1.00  0.00    +0.017 A 
ATOM     15  C   UNL     1       5.486  -1.430   1.641  1.00  0.00    +0.001 A 
ATOM     16  C   UNL     1       4.182  -1.792   1.306  1.00  0.00    +0.014 A 
ATOM     17  C   UNL     1       5.921   1.799  -0.328  1.00  0.00    +0.044 C 
ENDBRANCH   9  11
ENDBRANCH   7   9
ENDBRANCH   1   7
BRANCH   4  18
ATOM     18  C   UNL     1      -3.695   0.496  -0.631  1.00  0.00    +0.079 A 
ATOM     19  C   UNL     1      -3.707   1.863  -0.948  1.00  0.00    +0.063 A 
ATOM     20  C   UNL     1      -4.924  -0.100  -0.309  1.00  0.00    +0.278 A 
ATOM     21  C   UNL     1      -4.901   2.584  -0.941  1.00  0.00    +0.116 A 
ATOM     22  C   UNL     1      -6.129   0.620  -0.306  1.00  0.00    +0.090 A 
ATOM     23  C   UNL     1      -6.113   1.976  -0.626  1.00  0.00    +0.053 A 
BRANCH  20  24
ATOM     24  N   UNL     1      -4.987  -1.491   0.084  1.00  0.00    +0.063 N 
ATOM     25  O   UNL     1      -5.484  -2.280  -0.731  1.00  0.00    -0.258 OA
ATOM     26  O   UNL     1      -4.601  -1.771   1.227  1.00  0.00    -0.258 OA
ENDBRANCH  20  24
BRANCH  21  27
ATOM     27  O   UNL     1      -4.836   3.909  -1.259  1.00  0.00    -0.508 OA
ATOM     28  H   UNL     1      -5.734   4.281  -1.265  1.00  0.00    +0.293 HD
ENDBRANCH  21  27
ENDBRANCH   4  18
TORSDOF 6
