REMARK SMILES CN(CC/N=N/Nc1ccc2ncnc(-c3ccc(O)c([N+](=O)[O-])c3)c2c1)CCN1CCOCC1
REMARK SMILES IDX 5 1 6 2 4 3 3 4 2 5 1 6 28 7 29 8 30 9 31 10 35 11 32 12
REMARK SMILES IDX 34 13 33 14 7 15 8 17 9 18 27 19 10 20 26 21 11 22 15 23
REMARK SMILES IDX 12 24 14 25 13 26 16 27 17 28 25 29 18 30 21 31 19 32 22 33
REMARK SMILES IDX 23 34 24 35 20 36
REMARK H PARENT 7 16 20 37
ROOT
ATOM      1  N   UNL     1      -0.262   0.306  -1.685  1.00  0.00    -0.170 NA
ATOM      2  N   UNL     1       0.127  -0.208  -0.619  1.00  0.00    -0.075 NA
ENDROOT
BRANCH   1   3
ATOM      3  C   UNL     1      -1.677   0.000  -1.968  1.00  0.00    +0.184 C 
BRANCH   3   4
ATOM      4  C   UNL     1      -2.596   0.845  -1.065  1.00  0.00    +0.110 C 
BRANCH   4   5
ATOM      5  N   UNL     1      -4.052   0.755  -1.306  1.00  0.00    -0.303 NA
ATOM      6  C   UNL     1      -4.431   1.386  -2.570  1.00  0.00    +0.105 C 
BRANCH   5   7
ATOM      7  C   UNL     1      -4.545  -0.633  -1.200  1.00  0.00    +0.099 C 
BRANCH   7   8
ATOM      8  C   UNL     1      -6.066  -0.754  -0.911  1.00  0.00    +0.100 C 
BRANCH   8   9
ATOM      9  N   UNL     1      -6.415  -0.845   0.521  1.00  0.00    -0.297 NA
ATOM     10  C   UNL     1      -6.068   0.375   1.285  1.00  0.00    +0.113 C 
ATOM     11  C   UNL     1      -7.863  -1.097   0.707  1.00  0.00    +0.113 C 
ATOM     12  C   UNL     1      -6.978   1.579   0.988  1.00  0.00    +0.175 C 
ATOM     13  C   UNL     1      -8.756   0.128   0.438  1.00  0.00    +0.175 C 
ATOM     14  O   UNL     1      -8.357   1.257   1.224  1.00  0.00    -0.379 OA
ENDBRANCH   8   9
ENDBRANCH   7   8
ENDBRANCH   5   7
ENDBRANCH   4   5
ENDBRANCH   3   4
ENDBRANCH   1   3
BRANCH   2  15
ATOM     15  N   UNL     1       1.417   0.151  -0.492  1.00  0.00    -0.260 N 
ATOM     16  H   UNL     1       1.880   0.397  -1.358  1.00  0.00    +0.192 HD
BRANCH  15  17
ATOM     17  C   UNL     1       2.200  -0.451   0.505  1.00  0.00    +0.059 A 
ATOM     18  C   UNL     1       1.643  -1.059   1.630  1.00  0.00    +0.030 A 
ATOM     19  C   UNL     1       3.595  -0.357   0.445  1.00  0.00    +0.040 A 
ATOM     20  C   UNL     1       2.458  -1.576   2.645  1.00  0.00    +0.031 A 
ATOM     21  C   UNL     1       4.430  -0.904   1.461  1.00  0.00    +0.029 A 
ATOM     22  C   UNL     1       3.841  -1.506   2.581  1.00  0.00    +0.074 A 
ATOM     23  C   UNL     1       5.837  -0.889   1.475  1.00  0.00    +0.082 A 
ATOM     24  N   UNL     1       4.551  -2.008   3.598  1.00  0.00    -0.236 NA
ATOM     25  N   UNL     1       6.569  -1.375   2.503  1.00  0.00    -0.236 NA
ATOM     26  C   UNL     1       5.882  -1.910   3.516  1.00  0.00    +0.223 A 
BRANCH  23  27
ATOM     27  C   UNL     1       6.667  -0.368   0.373  1.00  0.00    +0.008 A 
ATOM     28  C   UNL     1       6.603  -0.925  -0.916  1.00  0.00    +0.015 A 
ATOM     29  C   UNL     1       7.589   0.669   0.603  1.00  0.00    +0.100 A 
ATOM     30  C   UNL     1       7.415  -0.449  -1.951  1.00  0.00    +0.054 A 
ATOM     31  C   UNL     1       8.408   1.146  -0.436  1.00  0.00    +0.311 A 
ATOM     32  C   UNL     1       8.319   0.586  -1.717  1.00  0.00    +0.194 A 
BRANCH  31  33
ATOM     33  N   UNL     1       9.349   2.231  -0.152  1.00  0.00    +0.066 N 
ATOM     34  O   UNL     1      10.131   2.562  -1.059  1.00  0.00    -0.258 OA
ATOM     35  O   UNL     1       9.307   2.765   0.965  1.00  0.00    -0.258 OA
ENDBRANCH  31  33
BRANCH  32  36
ATOM     36  O   UNL     1       9.061   0.963  -2.802  1.00  0.00    -0.502 OA
ATOM     37  H   UNL     1       9.698   1.669  -2.547  1.00  0.00    +0.293 HD
ENDBRANCH  32  36
ENDBRANCH  23  27
ENDBRANCH  15  17
ENDBRANCH   2  15
TORSDOF 11
