MODEL 1
REMARK VINA RESULT:    -6.396      0.000      0.000
REMARK INTER + INTRA:          -7.253
REMARK INTER:                  -6.956
REMARK INTRA:                  -0.297
REMARK UNBOUND:                -0.297
REMARK SMILES Oc1ccc(-c2ccccc2)cc1
REMARK SMILES IDX 2 1 3 2 4 3 5 4 12 5 13 6 1 7 6 9 7 10 11 11 8 12 10 13 9 14
REMARK H PARENT 1 8
ROOT
ATOM      1  C   UNL     1      28.486  -0.541  53.787  1.00  0.00    +0.115 A 
ATOM      2  C   UNL     1      27.741  -1.264  52.863  1.00  0.00    +0.047 A 
ATOM      3  C   UNL     1      26.345  -1.210  52.913  1.00  0.00    +0.012 A 
ATOM      4  C   UNL     1      25.681  -0.436  53.882  1.00  0.00    -0.018 A 
ATOM      5  C   UNL     1      26.463   0.284  54.801  1.00  0.00    +0.012 A 
ATOM      6  C   UNL     1      27.859   0.232  54.753  1.00  0.00    +0.047 A 
ENDROOT
BRANCH   1   7
ATOM      7  O   UNL     1      29.849  -0.564  53.776  1.00  0.00    -0.508 OA
ATOM      8  H   UNL     1      30.141  -1.290  53.201  1.00  0.00    +0.293 HD
ENDBRANCH   1   7
BRANCH   4   9
ATOM      9  C   UNL     1      24.210  -0.383  53.933  1.00  0.00    -0.018 A 
ATOM     10  C   UNL     1      23.480   0.355  52.986  1.00  0.00    +0.009 A 
ATOM     11  C   UNL     1      23.494  -1.067  54.929  1.00  0.00    +0.009 A 
ATOM     12  C   UNL     1      22.084   0.407  53.034  1.00  0.00    +0.001 A 
ATOM     13  C   UNL     1      22.098  -1.018  54.977  1.00  0.00    +0.001 A 
ATOM     14  C   UNL     1      21.394  -0.279  54.030  1.00  0.00    +0.000 A 
ENDBRANCH   4   9
TORSDOF 2
ENDMDL
MODEL 2
REMARK VINA RESULT:    -6.383      0.097      1.893
REMARK INTER + INTRA:          -7.239
REMARK INTER:                  -6.943
REMARK INTRA:                  -0.297
REMARK UNBOUND:                -0.297
REMARK SMILES Oc1ccc(-c2ccccc2)cc1
REMARK SMILES IDX 2 1 3 2 4 3 5 4 12 5 13 6 1 7 6 9 7 10 11 11 8 12 10 13 9 14
REMARK H PARENT 1 8
ROOT
ATOM      1  C   UNL     1      28.538  -0.547  53.728  1.00  0.00    +0.115 A 
ATOM      2  C   UNL     1      27.927   0.212  54.718  1.00  0.00    +0.047 A 
ATOM      3  C   UNL     1      26.531   0.249  54.791  1.00  0.00    +0.012 A 
ATOM      4  C   UNL     1      25.735  -0.469  53.880  1.00  0.00    -0.018 A 
ATOM      5  C   UNL     1      26.384  -1.227  52.891  1.00  0.00    +0.012 A 
ATOM      6  C   UNL     1      27.780  -1.266  52.816  1.00  0.00    +0.047 A 
ENDROOT
BRANCH   1   7
ATOM      7  O   UNL     1      29.896  -0.613  53.618  1.00  0.00    -0.508 OA
ATOM      8  H   UNL     1      30.193  -1.466  53.973  1.00  0.00    +0.293 HD
ENDBRANCH   1   7
BRANCH   4   9
ATOM      9  C   UNL     1      24.266  -0.426  53.959  1.00  0.00    -0.018 A 
ATOM     10  C   UNL     1      23.574  -1.139  54.952  1.00  0.00    +0.009 A 
ATOM     11  C   UNL     1      23.512   0.328  53.044  1.00  0.00    +0.009 A 
ATOM     12  C   UNL     1      22.178  -1.101  55.028  1.00  0.00    +0.001 A 
ATOM     13  C   UNL     1      22.117   0.370  53.120  1.00  0.00    +0.001 A 
ATOM     14  C   UNL     1      21.451  -0.346  54.111  1.00  0.00    +0.000 A 
ENDBRANCH   4   9
TORSDOF 2
ENDMDL
MODEL 3
REMARK VINA RESULT:    -6.368      2.809      5.456
REMARK INTER + INTRA:          -7.223
REMARK INTER:                  -6.923
REMARK INTRA:                  -0.301
REMARK UNBOUND:                -0.297
REMARK SMILES Oc1ccc(-c2ccccc2)cc1
REMARK SMILES IDX 2 1 3 2 4 3 5 4 12 5 13 6 1 7 6 9 7 10 11 11 8 12 10 13 9 14
REMARK H PARENT 1 8
ROOT
ATOM      1  C   UNL     1      21.150  -0.586  53.919  1.00  0.00    +0.115 A 
ATOM      2  C   UNL     1      21.808   0.122  52.920  1.00  0.00    +0.047 A 
ATOM      3  C   UNL     1      23.206   0.152  52.907  1.00  0.00    +0.012 A 
ATOM      4  C   UNL     1      23.958  -0.522  53.887  1.00  0.00    -0.018 A 
ATOM      5  C   UNL     1      23.262  -1.228  54.882  1.00  0.00    +0.012 A 
ATOM      6  C   UNL     1      21.865  -1.261  54.898  1.00  0.00    +0.047 A 
ENDROOT
BRANCH   1   7
ATOM      7  O   UNL     1      19.789  -0.642  53.972  1.00  0.00    -0.508 OA
ATOM      8  H   UNL     1      19.533  -1.261  54.675  1.00  0.00    +0.293 HD
ENDBRANCH   1   7
BRANCH   4   9
ATOM      9  C   UNL     1      25.429  -0.487  53.870  1.00  0.00    -0.018 A 
ATOM     10  C   UNL     1      26.155  -1.060  52.813  1.00  0.00    +0.009 A 
ATOM     11  C   UNL     1      26.152   0.121  54.911  1.00  0.00    +0.009 A 
ATOM     12  C   UNL     1      27.552  -1.029  52.797  1.00  0.00    +0.001 A 
ATOM     13  C   UNL     1      27.549   0.155  54.895  1.00  0.00    +0.001 A 
ATOM     14  C   UNL     1      28.249  -0.421  53.838  1.00  0.00    +0.000 A 
ENDBRANCH   4   9
TORSDOF 2
ENDMDL
MODEL 4
REMARK VINA RESULT:    -6.337      3.232      5.660
REMARK INTER + INTRA:          -7.190
REMARK INTER:                  -6.863
REMARK INTRA:                  -0.327
REMARK UNBOUND:                -0.297
REMARK SMILES Oc1ccc(-c2ccccc2)cc1
REMARK SMILES IDX 2 1 3 2 4 3 5 4 12 5 13 6 1 7 6 9 7 10 11 11 8 12 10 13 9 14
REMARK H PARENT 1 8
ROOT
ATOM      1  C   UNL     1      20.507  -0.687  53.747  1.00  0.00    +0.115 A 
ATOM      2  C   UNL     1      21.451  -1.163  54.649  1.00  0.00    +0.047 A 
ATOM      3  C   UNL     1      22.809  -0.930  54.410  1.00  0.00    +0.012 A 
ATOM      4  C   UNL     1      23.235  -0.224  53.271  1.00  0.00    -0.018 A 
ATOM      5  C   UNL     1      22.256   0.244  52.379  1.00  0.00    +0.012 A 
ATOM      6  C   UNL     1      20.898   0.014  52.616  1.00  0.00    +0.047 A 
ENDROOT
BRANCH   1   7
ATOM      7  O   UNL     1      19.172  -0.890  53.940  1.00  0.00    -0.508 OA
ATOM      8  H   UNL     1      18.818  -1.362  53.168  1.00  0.00    +0.293 HD
ENDBRANCH   1   7
BRANCH   4   9
ATOM      9  C   UNL     1      24.666   0.018  53.021  1.00  0.00    -0.018 A 
ATOM     10  C   UNL     1      25.086   0.993  52.101  1.00  0.00    +0.009 A 
ATOM     11  C   UNL     1      25.654  -0.721  53.694  1.00  0.00    +0.009 A 
ATOM     12  C   UNL     1      26.444   1.222  51.862  1.00  0.00    +0.001 A 
ATOM     13  C   UNL     1      27.013  -0.491  53.458  1.00  0.00    +0.001 A 
ATOM     14  C   UNL     1      27.407   0.479  52.541  1.00  0.00    +0.000 A 
ENDBRANCH   4   9
TORSDOF 2
ENDMDL
MODEL 5
REMARK VINA RESULT:    -6.291      2.645      5.476
REMARK INTER + INTRA:          -7.139
REMARK INTER:                  -6.843
REMARK INTRA:                  -0.296
REMARK UNBOUND:                -0.297
REMARK SMILES Oc1ccc(-c2ccccc2)cc1
REMARK SMILES IDX 2 1 3 2 4 3 5 4 12 5 13 6 1 7 6 9 7 10 11 11 8 12 10 13 9 14
REMARK H PARENT 1 8
ROOT
ATOM      1  C   UNL     1      21.831  -0.488  54.263  1.00  0.00    +0.115 A 
ATOM      2  C   UNL     1      22.569  -1.228  55.180  1.00  0.00    +0.047 A 
ATOM      3  C   UNL     1      23.965  -1.227  55.098  1.00  0.00    +0.012 A 
ATOM      4  C   UNL     1      24.635  -0.492  54.104  1.00  0.00    -0.018 A 
ATOM      5  C   UNL     1      23.861   0.246  53.193  1.00  0.00    +0.012 A 
ATOM      6  C   UNL     1      22.466   0.248  53.272  1.00  0.00    +0.047 A 
ENDROOT
BRANCH   1   7
ATOM      7  O   UNL     1      20.469  -0.459  54.303  1.00  0.00    -0.508 OA
ATOM      8  H   UNL     1      20.193   0.288  54.859  1.00  0.00    +0.293 HD
ENDBRANCH   1   7
BRANCH   4   9
ATOM      9  C   UNL     1      26.105  -0.495  54.021  1.00  0.00    -0.018 A 
ATOM     10  C   UNL     1      26.883   0.257  54.918  1.00  0.00    +0.009 A 
ATOM     11  C   UNL     1      26.774  -1.250  53.042  1.00  0.00    +0.009 A 
ATOM     12  C   UNL     1      28.278   0.255  54.839  1.00  0.00    +0.001 A 
ATOM     13  C   UNL     1      28.170  -1.254  52.964  1.00  0.00    +0.001 A 
ATOM     14  C   UNL     1      28.921  -0.500  53.861  1.00  0.00    +0.000 A 
ENDBRANCH   4   9
TORSDOF 2
ENDMDL
MODEL 6
REMARK VINA RESULT:    -6.135      2.413      3.362
REMARK INTER + INTRA:          -6.970
REMARK INTER:                  -6.648
REMARK INTRA:                  -0.322
REMARK UNBOUND:                -0.297
REMARK SMILES Oc1ccc(-c2ccccc2)cc1
REMARK SMILES IDX 2 1 3 2 4 3 5 4 12 5 13 6 1 7 6 9 7 10 11 11 8 12 10 13 9 14
REMARK H PARENT 1 8
ROOT
ATOM      1  C   UNL     1      26.227   2.537  51.432  1.00  0.00    +0.115 A 
ATOM      2  C   UNL     1      24.917   3.000  51.399  1.00  0.00    +0.047 A 
ATOM      3  C   UNL     1      23.899   2.223  51.960  1.00  0.00    +0.012 A 
ATOM      4  C   UNL     1      24.178   0.980  52.557  1.00  0.00    -0.018 A 
ATOM      5  C   UNL     1      25.513   0.541  52.574  1.00  0.00    +0.012 A 
ATOM      6  C   UNL     1      26.532   1.316  52.015  1.00  0.00    +0.047 A 
ENDROOT
BRANCH   1   7
ATOM      7  O   UNL     1      27.251   3.261  50.896  1.00  0.00    -0.508 OA
ATOM      8  H   UNL     1      26.982   4.193  50.857  1.00  0.00    +0.293 HD
ENDBRANCH   1   7
BRANCH   4   9
ATOM      9  C   UNL     1      23.104   0.163  53.146  1.00  0.00    -0.018 A 
ATOM     10  C   UNL     1      23.365  -0.722  54.205  1.00  0.00    +0.009 A 
ATOM     11  C   UNL     1      21.786   0.244  52.665  1.00  0.00    +0.009 A 
ATOM     12  C   UNL     1      22.346  -1.499  54.764  1.00  0.00    +0.001 A 
ATOM     13  C   UNL     1      20.765  -0.530  53.224  1.00  0.00    +0.001 A 
ATOM     14  C   UNL     1      21.046  -1.402  54.272  1.00  0.00    +0.000 A 
ENDBRANCH   4   9
TORSDOF 2
ENDMDL
MODEL 7
REMARK VINA RESULT:    -6.037      2.452      4.097
REMARK INTER + INTRA:          -6.863
REMARK INTER:                  -6.535
REMARK INTRA:                  -0.329
REMARK UNBOUND:                -0.297
REMARK SMILES Oc1ccc(-c2ccccc2)cc1
REMARK SMILES IDX 2 1 3 2 4 3 5 4 12 5 13 6 1 7 6 9 7 10 11 11 8 12 10 13 9 14
REMARK H PARENT 1 8
ROOT
ATOM      1  C   UNL     1      24.279  -1.057  55.157  1.00  0.00    +0.115 A 
ATOM      2  C   UNL     1      24.671  -0.365  54.017  1.00  0.00    +0.047 A 
ATOM      3  C   UNL     1      23.707   0.016  53.079  1.00  0.00    +0.012 A 
ATOM      4  C   UNL     1      22.347  -0.290  53.268  1.00  0.00    -0.018 A 
ATOM      5  C   UNL     1      21.984  -0.990  54.431  1.00  0.00    +0.012 A 
ATOM      6  C   UNL     1      22.945  -1.371  55.371  1.00  0.00    +0.047 A 
ENDROOT
BRANCH   1   7
ATOM      7  O   UNL     1      25.184  -1.449  56.099  1.00  0.00    -0.508 OA
ATOM      8  H   UNL     1      25.948  -1.843  55.647  1.00  0.00    +0.293 HD
ENDBRANCH   1   7
BRANCH   4   9
ATOM      9  C   UNL     1      21.335   0.111  52.277  1.00  0.00    -0.018 A 
ATOM     10  C   UNL     1      21.712   0.584  51.009  1.00  0.00    +0.009 A 
ATOM     11  C   UNL     1      19.963   0.035  52.570  1.00  0.00    +0.009 A 
ATOM     12  C   UNL     1      20.752   0.967  50.068  1.00  0.00    +0.001 A 
ATOM     13  C   UNL     1      19.002   0.415  51.629  1.00  0.00    +0.001 A 
ATOM     14  C   UNL     1      19.397   0.882  50.379  1.00  0.00    +0.000 A 
ENDBRANCH   4   9
TORSDOF 2
ENDMDL
MODEL 8
REMARK VINA RESULT:    -5.961      2.678      5.414
REMARK INTER + INTRA:          -6.780
REMARK INTER:                  -6.477
REMARK INTRA:                  -0.304
REMARK UNBOUND:                -0.297
REMARK SMILES Oc1ccc(-c2ccccc2)cc1
REMARK SMILES IDX 2 1 3 2 4 3 5 4 12 5 13 6 1 7 6 9 7 10 11 11 8 12 10 13 9 14
REMARK H PARENT 1 8
ROOT
ATOM      1  C   UNL     1      22.472   0.983  53.079  1.00  0.00    +0.115 A 
ATOM      2  C   UNL     1      22.798  -0.271  53.580  1.00  0.00    +0.047 A 
ATOM      3  C   UNL     1      24.143  -0.620  53.738  1.00  0.00    +0.012 A 
ATOM      4  C   UNL     1      25.171   0.277  53.397  1.00  0.00    -0.018 A 
ATOM      5  C   UNL     1      24.809   1.537  52.893  1.00  0.00    +0.012 A 
ATOM      6  C   UNL     1      23.465   1.889  52.735  1.00  0.00    +0.047 A 
ENDROOT
BRANCH   1   7
ATOM      7  O   UNL     1      21.175   1.367  52.908  1.00  0.00    -0.508 OA
ATOM      8  H   UNL     1      20.820   0.913  52.125  1.00  0.00    +0.293 HD
ENDBRANCH   1   7
BRANCH   4   9
ATOM      9  C   UNL     1      26.587  -0.095  53.563  1.00  0.00    -0.018 A 
ATOM     10  C   UNL     1      27.439   0.654  54.391  1.00  0.00    +0.009 A 
ATOM     11  C   UNL     1      27.127  -1.208  52.898  1.00  0.00    +0.009 A 
ATOM     12  C   UNL     1      28.783   0.303  54.549  1.00  0.00    +0.001 A 
ATOM     13  C   UNL     1      28.470  -1.562  53.056  1.00  0.00    +0.001 A 
ATOM     14  C   UNL     1      29.297  -0.805  53.880  1.00  0.00    +0.000 A 
ENDBRANCH   4   9
TORSDOF 2
ENDMDL
MODEL 9
REMARK VINA RESULT:    -5.956      3.239      5.054
REMARK INTER + INTRA:          -6.775
REMARK INTER:                  -6.450
REMARK INTRA:                  -0.325
REMARK UNBOUND:                -0.297
REMARK SMILES Oc1ccc(-c2ccccc2)cc1
REMARK SMILES IDX 2 1 3 2 4 3 5 4 12 5 13 6 1 7 6 9 7 10 11 11 8 12 10 13 9 14
REMARK H PARENT 1 8
ROOT
ATOM      1  C   UNL     1      22.910  -1.145  54.742  1.00  0.00    +0.115 A 
ATOM      2  C   UNL     1      21.805  -0.655  54.056  1.00  0.00    +0.047 A 
ATOM      3  C   UNL     1      21.996   0.204  52.969  1.00  0.00    +0.012 A 
ATOM      4  C   UNL     1      23.288   0.581  52.559  1.00  0.00    -0.018 A 
ATOM      5  C   UNL     1      24.383   0.069  53.273  1.00  0.00    +0.012 A 
ATOM      6  C   UNL     1      24.196  -0.791  54.359  1.00  0.00    +0.047 A 
ENDROOT
BRANCH   1   7
ATOM      7  O   UNL     1      22.771  -1.984  55.807  1.00  0.00    -0.508 OA
ATOM      8  H   UNL     1      21.974  -2.523  55.674  1.00  0.00    +0.293 HD
ENDBRANCH   1   7
BRANCH   4   9
ATOM      9  C   UNL     1      23.485   1.487  51.415  1.00  0.00    -0.018 A 
ATOM     10  C   UNL     1      24.673   2.224  51.272  1.00  0.00    +0.009 A 
ATOM     11  C   UNL     1      22.491   1.643  50.433  1.00  0.00    +0.009 A 
ATOM     12  C   UNL     1      24.860   3.085  50.187  1.00  0.00    +0.001 A 
ATOM     13  C   UNL     1      22.679   2.502  49.347  1.00  0.00    +0.001 A 
ATOM     14  C   UNL     1      23.863   3.224  49.225  1.00  0.00    +0.000 A 
ENDBRANCH   4   9
TORSDOF 2
ENDMDL
