MODEL 1
REMARK VINA RESULT:    -7.263      0.000      0.000
REMARK INTER + INTRA:          -8.902
REMARK INTER:                  -8.324
REMARK INTRA:                  -0.578
REMARK UNBOUND:                -0.578
REMARK SMILES O=[N+]([O-])c1cc(-c2ccccc2)ccc1O
REMARK SMILES IDX 4 1 5 2 6 3 13 4 14 5 15 6 2 7 1 8 3 9 16 10 7 12 8 13 12 14
REMARK SMILES IDX 9 15 11 16 10 17
REMARK H PARENT 16 11
ROOT
ATOM      1  C   UNL     1      27.073   0.464  54.058  1.00  0.00    +0.311 A 
ATOM      2  C   UNL     1      25.752   0.026  54.226  1.00  0.00    +0.098 A 
ATOM      3  C   UNL     1      24.775   0.372  53.280  1.00  0.00    -0.011 A 
ATOM      4  C   UNL     1      25.168   1.160  52.181  1.00  0.00    +0.013 A 
ATOM      5  C   UNL     1      26.490   1.599  52.026  1.00  0.00    +0.054 A 
ATOM      6  C   UNL     1      27.450   1.252  52.972  1.00  0.00    +0.194 A 
ENDROOT
BRANCH   1   7
ATOM      7  N   UNL     1      28.049   0.072  55.051  1.00  0.00    +0.066 N 
ATOM      8  O   UNL     1      27.670   0.057  56.231  1.00  0.00    -0.258 OA
ATOM      9  O   UNL     1      29.168  -0.276  54.649  1.00  0.00    -0.258 OA
ENDBRANCH   1   7
BRANCH   6  10
ATOM     10  O   UNL     1      28.729   1.703  52.843  1.00  0.00    -0.502 OA
ATOM     11  H   UNL     1      29.338   1.121  53.330  1.00  0.00    +0.293 HD
ENDBRANCH   6  10
BRANCH   3  12
ATOM     12  C   UNL     1      23.382  -0.076  53.432  1.00  0.00    -0.018 A 
ATOM     13  C   UNL     1      22.383   0.350  52.541  1.00  0.00    +0.009 A 
ATOM     14  C   UNL     1      23.009  -0.942  54.475  1.00  0.00    +0.009 A 
ATOM     15  C   UNL     1      21.060  -0.075  52.685  1.00  0.00    +0.001 A 
ATOM     16  C   UNL     1      21.686  -1.366  54.621  1.00  0.00    +0.001 A 
ATOM     17  C   UNL     1      20.712  -0.932  53.725  1.00  0.00    +0.000 A 
ENDBRANCH   3  12
TORSDOF 3
ENDMDL
MODEL 2
REMARK VINA RESULT:    -7.235      0.093      1.208
REMARK INTER + INTRA:          -8.871
REMARK INTER:                  -8.293
REMARK INTRA:                  -0.578
REMARK UNBOUND:                -0.578
REMARK SMILES O=[N+]([O-])c1cc(-c2ccccc2)ccc1O
REMARK SMILES IDX 4 1 5 2 6 3 13 4 14 5 15 6 2 7 1 8 3 9 16 10 7 12 8 13 12 14
REMARK SMILES IDX 9 15 11 16 10 17
REMARK H PARENT 16 11
ROOT
ATOM      1  C   UNL     1      27.041   0.534  54.050  1.00  0.00    +0.311 A 
ATOM      2  C   UNL     1      25.719   0.096  54.211  1.00  0.00    +0.098 A 
ATOM      3  C   UNL     1      24.742   0.463  53.273  1.00  0.00    -0.011 A 
ATOM      4  C   UNL     1      25.135   1.272  52.190  1.00  0.00    +0.013 A 
ATOM      5  C   UNL     1      26.459   1.711  52.042  1.00  0.00    +0.054 A 
ATOM      6  C   UNL     1      27.419   1.342  52.980  1.00  0.00    +0.194 A 
ENDROOT
BRANCH   1   7
ATOM      7  N   UNL     1      28.018   0.120  55.033  1.00  0.00    +0.066 N 
ATOM      8  O   UNL     1      27.639   0.081  56.213  1.00  0.00    -0.258 OA
ATOM      9  O   UNL     1      29.135  -0.222  54.624  1.00  0.00    -0.258 OA
ENDBRANCH   1   7
BRANCH   6  10
ATOM     10  O   UNL     1      28.699   1.793  52.858  1.00  0.00    -0.502 OA
ATOM     11  H   UNL     1      29.295   1.051  52.657  1.00  0.00    +0.293 HD
ENDBRANCH   6  10
BRANCH   3  12
ATOM     12  C   UNL     1      23.348   0.015  53.418  1.00  0.00    -0.018 A 
ATOM     13  C   UNL     1      22.976  -0.875  54.440  1.00  0.00    +0.009 A 
ATOM     14  C   UNL     1      22.348   0.463  52.539  1.00  0.00    +0.009 A 
ATOM     15  C   UNL     1      21.652  -1.300  54.579  1.00  0.00    +0.001 A 
ATOM     16  C   UNL     1      21.024   0.038  52.675  1.00  0.00    +0.001 A 
ATOM     17  C   UNL     1      20.677  -0.844  53.696  1.00  0.00    +0.000 A 
ENDBRANCH   3  12
TORSDOF 3
ENDMDL
MODEL 3
REMARK VINA RESULT:    -7.044      1.901      4.304
REMARK INTER + INTRA:          -8.652
REMARK INTER:                  -8.040
REMARK INTRA:                  -0.611
REMARK UNBOUND:                -0.578
REMARK SMILES O=[N+]([O-])c1cc(-c2ccccc2)ccc1O
REMARK SMILES IDX 4 1 5 2 6 3 13 4 14 5 15 6 2 7 1 8 3 9 16 10 7 12 8 13 12 14
REMARK SMILES IDX 9 15 11 16 10 17
REMARK H PARENT 16 11
ROOT
ATOM      1  C   UNL     1      26.221   0.050  54.508  1.00  0.00    +0.311 A 
ATOM      2  C   UNL     1      26.296   0.944  53.430  1.00  0.00    +0.098 A 
ATOM      3  C   UNL     1      25.193   1.107  52.580  1.00  0.00    -0.011 A 
ATOM      4  C   UNL     1      24.034   0.352  52.845  1.00  0.00    +0.013 A 
ATOM      5  C   UNL     1      23.973  -0.546  53.920  1.00  0.00    +0.054 A 
ATOM      6  C   UNL     1      25.074  -0.701  54.757  1.00  0.00    +0.194 A 
ENDROOT
BRANCH   1   7
ATOM      7  N   UNL     1      27.378  -0.076  55.367  1.00  0.00    +0.066 N 
ATOM      8  O   UNL     1      27.189   0.075  56.583  1.00  0.00    -0.258 OA
ATOM      9  O   UNL     1      28.455  -0.382  54.838  1.00  0.00    -0.258 OA
ENDBRANCH   1   7
BRANCH   6  10
ATOM     10  O   UNL     1      25.030  -1.596  55.783  1.00  0.00    -0.502 OA
ATOM     11  H   UNL     1      24.188  -2.084  55.763  1.00  0.00    +0.293 HD
ENDBRANCH   6  10
BRANCH   3  12
ATOM     12  C   UNL     1      25.245   2.040  51.443  1.00  0.00    -0.018 A 
ATOM     13  C   UNL     1      26.474   2.476  50.919  1.00  0.00    +0.009 A 
ATOM     14  C   UNL     1      24.067   2.525  50.848  1.00  0.00    +0.009 A 
ATOM     15  C   UNL     1      26.524   3.361  49.840  1.00  0.00    +0.001 A 
ATOM     16  C   UNL     1      24.116   3.412  49.770  1.00  0.00    +0.001 A 
ATOM     17  C   UNL     1      25.346   3.830  49.267  1.00  0.00    +0.000 A 
ENDBRANCH   3  12
TORSDOF 3
ENDMDL
MODEL 4
REMARK VINA RESULT:    -7.016      3.505      5.645
REMARK INTER + INTRA:          -8.620
REMARK INTER:                  -8.060
REMARK INTRA:                  -0.560
REMARK UNBOUND:                -0.578
REMARK SMILES O=[N+]([O-])c1cc(-c2ccccc2)ccc1O
REMARK SMILES IDX 4 1 5 2 6 3 13 4 14 5 15 6 2 7 1 8 3 9 16 10 7 12 8 13 12 14
REMARK SMILES IDX 9 15 11 16 10 17
REMARK H PARENT 16 11
ROOT
ATOM      1  C   UNL     1      23.411  -0.368  53.617  1.00  0.00    +0.311 A 
ATOM      2  C   UNL     1      24.766  -0.696  53.768  1.00  0.00    +0.098 A 
ATOM      3  C   UNL     1      25.740   0.018  53.054  1.00  0.00    -0.011 A 
ATOM      4  C   UNL     1      25.311   1.050  52.198  1.00  0.00    +0.013 A 
ATOM      5  C   UNL     1      23.952   1.364  52.049  1.00  0.00    +0.054 A 
ATOM      6  C   UNL     1      22.994   0.648  52.760  1.00  0.00    +0.194 A 
ENDROOT
BRANCH   1   7
ATOM      7  N   UNL     1      22.442  -1.121  54.384  1.00  0.00    +0.066 N 
ATOM      8  O   UNL     1      21.435  -1.515  53.777  1.00  0.00    -0.258 OA
ATOM      9  O   UNL     1      22.713  -1.369  55.566  1.00  0.00    -0.258 OA
ENDBRANCH   1   7
BRANCH   6  10
ATOM     10  O   UNL     1      21.671   0.928  52.593  1.00  0.00    -0.502 OA
ATOM     11  H   UNL     1      21.155   0.546  53.324  1.00  0.00    +0.293 HD
ENDBRANCH   6  10
BRANCH   3  12
ATOM     12  C   UNL     1      27.169  -0.305  53.195  1.00  0.00    -0.018 A 
ATOM     13  C   UNL     1      27.643  -1.608  52.969  1.00  0.00    +0.009 A 
ATOM     14  C   UNL     1      28.101   0.681  53.561  1.00  0.00    +0.009 A 
ATOM     15  C   UNL     1      29.000  -1.914  53.103  1.00  0.00    +0.001 A 
ATOM     16  C   UNL     1      29.458   0.375  53.697  1.00  0.00    +0.001 A 
ATOM     17  C   UNL     1      29.906  -0.923  53.468  1.00  0.00    +0.000 A 
ENDBRANCH   3  12
TORSDOF 3
ENDMDL
MODEL 5
REMARK VINA RESULT:    -6.992      2.567      4.441
REMARK INTER + INTRA:          -8.593
REMARK INTER:                  -8.026
REMARK INTRA:                  -0.566
REMARK UNBOUND:                -0.578
REMARK SMILES O=[N+]([O-])c1cc(-c2ccccc2)ccc1O
REMARK SMILES IDX 4 1 5 2 6 3 13 4 14 5 15 6 2 7 1 8 3 9 16 10 7 12 8 13 12 14
REMARK SMILES IDX 9 15 11 16 10 17
REMARK H PARENT 16 11
ROOT
ATOM      1  C   UNL     1      24.039  -0.735  54.289  1.00  0.00    +0.311 A 
ATOM      2  C   UNL     1      23.864  -0.038  53.085  1.00  0.00    +0.098 A 
ATOM      3  C   UNL     1      22.572   0.177  52.583  1.00  0.00    -0.011 A 
ATOM      4  C   UNL     1      21.483  -0.328  53.320  1.00  0.00    +0.013 A 
ATOM      5  C   UNL     1      21.670  -1.031  54.518  1.00  0.00    +0.054 A 
ATOM      6  C   UNL     1      22.956  -1.240  55.006  1.00  0.00    +0.194 A 
ENDROOT
BRANCH   1   7
ATOM      7  N   UNL     1      25.388  -0.921  54.776  1.00  0.00    +0.066 N 
ATOM      8  O   UNL     1      26.263  -1.142  53.926  1.00  0.00    -0.258 OA
ATOM      9  O   UNL     1      25.583  -0.786  55.992  1.00  0.00    -0.258 OA
ENDBRANCH   1   7
BRANCH   6  10
ATOM     10  O   UNL     1      23.143  -1.951  56.153  1.00  0.00    -0.502 OA
ATOM     11  H   UNL     1      24.010  -1.736  56.540  1.00  0.00    +0.293 HD
ENDBRANCH   6  10
BRANCH   3  12
ATOM     12  C   UNL     1      22.361   0.907  51.324  1.00  0.00    -0.018 A 
ATOM     13  C   UNL     1      21.304   0.572  50.460  1.00  0.00    +0.009 A 
ATOM     14  C   UNL     1      23.211   1.960  50.945  1.00  0.00    +0.009 A 
ATOM     15  C   UNL     1      21.103   1.265  49.264  1.00  0.00    +0.001 A 
ATOM     16  C   UNL     1      23.013   2.653  49.749  1.00  0.00    +0.001 A 
ATOM     17  C   UNL     1      21.958   2.305  48.908  1.00  0.00    +0.000 A 
ENDBRANCH   3  12
TORSDOF 3
ENDMDL
MODEL 6
REMARK VINA RESULT:    -6.830      1.480      2.452
REMARK INTER + INTRA:          -8.406
REMARK INTER:                  -7.826
REMARK INTRA:                  -0.580
REMARK UNBOUND:                -0.578
REMARK SMILES O=[N+]([O-])c1cc(-c2ccccc2)ccc1O
REMARK SMILES IDX 4 1 5 2 6 3 13 4 14 5 15 6 2 7 1 8 3 9 16 10 7 12 8 13 12 14
REMARK SMILES IDX 9 15 11 16 10 17
REMARK H PARENT 16 11
ROOT
ATOM      1  C   UNL     1      27.863   0.756  53.536  1.00  0.00    +0.311 A 
ATOM      2  C   UNL     1      26.488   1.025  53.501  1.00  0.00    +0.098 A 
ATOM      3  C   UNL     1      25.583  -0.001  53.190  1.00  0.00    -0.011 A 
ATOM      4  C   UNL     1      26.102  -1.282  52.918  1.00  0.00    +0.013 A 
ATOM      5  C   UNL     1      27.480  -1.537  52.948  1.00  0.00    +0.054 A 
ATOM      6  C   UNL     1      28.368  -0.512  53.256  1.00  0.00    +0.194 A 
ENDROOT
BRANCH   1   7
ATOM      7  N   UNL     1      28.758   1.841  53.876  1.00  0.00    +0.066 N 
ATOM      8  O   UNL     1      28.851   2.765  53.055  1.00  0.00    -0.258 OA
ATOM      9  O   UNL     1      29.316   1.799  54.981  1.00  0.00    -0.258 OA
ENDBRANCH   1   7
BRANCH   6  10
ATOM     10  O   UNL     1      29.710  -0.749  53.254  1.00  0.00    -0.502 OA
ATOM     11  H   UNL     1      29.923  -1.462  53.881  1.00  0.00    +0.293 HD
ENDBRANCH   6  10
BRANCH   3  12
ATOM     12  C   UNL     1      24.135   0.254  53.148  1.00  0.00    -0.018 A 
ATOM     13  C   UNL     1      23.251  -0.451  53.983  1.00  0.00    +0.009 A 
ATOM     14  C   UNL     1      23.592   1.209  52.271  1.00  0.00    +0.009 A 
ATOM     15  C   UNL     1      21.875  -0.208  53.944  1.00  0.00    +0.001 A 
ATOM     16  C   UNL     1      22.216   1.450  52.230  1.00  0.00    +0.001 A 
ATOM     17  C   UNL     1      21.359   0.741  53.067  1.00  0.00    +0.000 A 
ENDBRANCH   3  12
TORSDOF 3
ENDMDL
MODEL 7
REMARK VINA RESULT:    -6.776      2.163      3.770
REMARK INTER + INTRA:          -8.345
REMARK INTER:                  -7.726
REMARK INTRA:                  -0.619
REMARK UNBOUND:                -0.578
REMARK SMILES O=[N+]([O-])c1cc(-c2ccccc2)ccc1O
REMARK SMILES IDX 4 1 5 2 6 3 13 4 14 5 15 6 2 7 1 8 3 9 16 10 7 12 8 13 12 14
REMARK SMILES IDX 9 15 11 16 10 17
REMARK H PARENT 16 11
ROOT
ATOM      1  C   UNL     1      24.505  -0.470  54.149  1.00  0.00    +0.311 A 
ATOM      2  C   UNL     1      23.591  -0.062  53.168  1.00  0.00    +0.098 A 
ATOM      3  C   UNL     1      22.229  -0.366  53.312  1.00  0.00    -0.011 A 
ATOM      4  C   UNL     1      21.828  -1.083  54.456  1.00  0.00    +0.013 A 
ATOM      5  C   UNL     1      22.752  -1.493  55.427  1.00  0.00    +0.054 A 
ATOM      6  C   UNL     1      24.101  -1.188  55.273  1.00  0.00    +0.194 A 
ENDROOT
BRANCH   1   7
ATOM      7  N   UNL     1      25.898  -0.122  53.966  1.00  0.00    +0.066 N 
ATOM      8  O   UNL     1      26.698  -1.063  53.856  1.00  0.00    -0.258 OA
ATOM      9  O   UNL     1      26.181   1.080  53.872  1.00  0.00    -0.258 OA
ENDBRANCH   1   7
BRANCH   6  10
ATOM     10  O   UNL     1      25.006  -1.613  56.198  1.00  0.00    -0.502 OA
ATOM     11  H   UNL     1      24.628  -1.540  57.092  1.00  0.00    +0.293 HD
ENDBRANCH   6  10
BRANCH   3  12
ATOM     12  C   UNL     1      21.249   0.053  52.298  1.00  0.00    -0.018 A 
ATOM     13  C   UNL     1      21.665   0.574  51.060  1.00  0.00    +0.009 A 
ATOM     14  C   UNL     1      19.868  -0.055  52.536  1.00  0.00    +0.009 A 
ATOM     15  C   UNL     1      20.734   0.971  50.097  1.00  0.00    +0.001 A 
ATOM     16  C   UNL     1      18.937   0.343  51.574  1.00  0.00    +0.001 A 
ATOM     17  C   UNL     1      19.371   0.856  50.354  1.00  0.00    +0.000 A 
ENDBRANCH   3  12
TORSDOF 3
ENDMDL
MODEL 8
REMARK VINA RESULT:    -6.632      4.196      6.105
REMARK INTER + INTRA:          -8.179
REMARK INTER:                  -7.586
REMARK INTRA:                  -0.593
REMARK UNBOUND:                -0.578
REMARK SMILES O=[N+]([O-])c1cc(-c2ccccc2)ccc1O
REMARK SMILES IDX 4 1 5 2 6 3 13 4 14 5 15 6 2 7 1 8 3 9 16 10 7 12 8 13 12 14
REMARK SMILES IDX 9 15 11 16 10 17
REMARK H PARENT 16 11
ROOT
ATOM      1  C   UNL     1      21.919   0.213  53.135  1.00  0.00    +0.311 A 
ATOM      2  C   UNL     1      23.317   0.243  53.038  1.00  0.00    +0.098 A 
ATOM      3  C   UNL     1      24.096  -0.492  53.944  1.00  0.00    -0.011 A 
ATOM      4  C   UNL     1      23.431  -1.243  54.933  1.00  0.00    +0.013 A 
ATOM      5  C   UNL     1      22.032  -1.259  55.025  1.00  0.00    +0.054 A 
ATOM      6  C   UNL     1      21.269  -0.524  54.123  1.00  0.00    +0.194 A 
ENDROOT
BRANCH   1   7
ATOM      7  N   UNL     1      21.156   0.976  52.171  1.00  0.00    +0.066 N 
ATOM      8  O   UNL     1      20.476   1.914  52.613  1.00  0.00    -0.258 OA
ATOM      9  O   UNL     1      21.282   0.679  50.975  1.00  0.00    -0.258 OA
ENDBRANCH   1   7
BRANCH   6  10
ATOM     10  O   UNL     1      19.911  -0.511  54.230  1.00  0.00    -0.502 OA
ATOM     11  H   UNL     1      19.517  -1.055  53.526  1.00  0.00    +0.293 HD
ENDBRANCH   6  10
BRANCH   3  12
ATOM     12  C   UNL     1      25.565  -0.480  53.863  1.00  0.00    -0.018 A 
ATOM     13  C   UNL     1      26.241  -1.192  52.857  1.00  0.00    +0.009 A 
ATOM     14  C   UNL     1      26.336   0.243  54.789  1.00  0.00    +0.009 A 
ATOM     15  C   UNL     1      27.636  -1.180  52.780  1.00  0.00    +0.001 A 
ATOM     16  C   UNL     1      27.731   0.254  54.714  1.00  0.00    +0.001 A 
ATOM     17  C   UNL     1      28.380  -0.458  53.708  1.00  0.00    +0.000 A 
ENDBRANCH   3  12
TORSDOF 3
ENDMDL
MODEL 9
REMARK VINA RESULT:    -6.565      3.155      5.062
REMARK INTER + INTRA:          -8.103
REMARK INTER:                  -7.531
REMARK INTRA:                  -0.571
REMARK UNBOUND:                -0.578
REMARK SMILES O=[N+]([O-])c1cc(-c2ccccc2)ccc1O
REMARK SMILES IDX 4 1 5 2 6 3 13 4 14 5 15 6 2 7 1 8 3 9 16 10 7 12 8 13 12 14
REMARK SMILES IDX 9 15 11 16 10 17
REMARK H PARENT 16 11
ROOT
ATOM      1  C   UNL     1      23.937  -0.503  54.008  1.00  0.00    +0.311 A 
ATOM      2  C   UNL     1      23.975   0.391  52.928  1.00  0.00    +0.098 A 
ATOM      3  C   UNL     1      25.174   1.043  52.604  1.00  0.00    -0.011 A 
ATOM      4  C   UNL     1      26.310   0.772  53.390  1.00  0.00    +0.013 A 
ATOM      5  C   UNL     1      26.258  -0.118  54.473  1.00  0.00    +0.054 A 
ATOM      6  C   UNL     1      25.063  -0.758  54.787  1.00  0.00    +0.194 A 
ENDROOT
BRANCH   1   7
ATOM      7  N   UNL     1      22.683  -1.164  54.297  1.00  0.00    +0.066 N 
ATOM      8  O   UNL     1      22.350  -1.232  55.490  1.00  0.00    -0.258 OA
ATOM      9  O   UNL     1      22.008  -1.559  53.337  1.00  0.00    -0.258 OA
ENDBRANCH   1   7
BRANCH   6  10
ATOM     10  O   UNL     1      25.001  -1.599  55.858  1.00  0.00    -0.502 OA
ATOM     11  H   UNL     1      24.339  -1.278  56.494  1.00  0.00    +0.293 HD
ENDBRANCH   6  10
BRANCH   3  12
ATOM     12  C   UNL     1      25.241   1.985  51.475  1.00  0.00    -0.018 A 
ATOM     13  C   UNL     1      24.071   2.471  50.867  1.00  0.00    +0.009 A 
ATOM     14  C   UNL     1      26.477   2.425  50.971  1.00  0.00    +0.009 A 
ATOM     15  C   UNL     1      24.135   3.365  49.795  1.00  0.00    +0.001 A 
ATOM     16  C   UNL     1      26.542   3.317  49.898  1.00  0.00    +0.001 A 
ATOM     17  C   UNL     1      25.369   3.787  49.311  1.00  0.00    +0.000 A 
ENDBRANCH   3  12
TORSDOF 3
ENDMDL
