REMARK SMILES O=[N+]([O-])c1ccc(O)cc1-c1ccc(-c2ccccc2)[nH]1
REMARK SMILES IDX 4 1 5 2 6 3 7 4 9 5 10 6 2 7 1 8 3 9 11 10 12 11 21 12 13 13
REMARK SMILES IDX 14 14 15 16 16 17 20 18 17 19 19 20 18 21 8 22
REMARK H PARENT 21 15 8 23
ROOT
ATOM      1  C   UNL     1      -3.110   1.051   0.024  1.00  0.00    +0.278 A 
ATOM      2  C   UNL     1      -4.392   0.811   0.543  1.00  0.00    +0.090 A 
ATOM      3  C   UNL     1      -4.721  -0.470   0.981  1.00  0.00    +0.053 A 
ATOM      4  C   UNL     1      -3.769  -1.482   0.892  1.00  0.00    +0.116 A 
ATOM      5  C   UNL     1      -2.497  -1.238   0.370  1.00  0.00    +0.063 A 
ATOM      6  C   UNL     1      -2.140   0.043  -0.078  1.00  0.00    +0.079 A 
ENDROOT
BRANCH   1   7
ATOM      7  N   UNL     1      -2.805   2.409  -0.370  1.00  0.00    +0.063 N 
ATOM      8  O   UNL     1      -3.295   2.804  -1.438  1.00  0.00    -0.258 OA
ATOM      9  O   UNL     1      -2.131   3.087   0.416  1.00  0.00    -0.258 OA
ENDBRANCH   1   7
BRANCH   6  10
ATOM     10  C   UNL     1      -0.805   0.251  -0.640  1.00  0.00    +0.053 A 
ATOM     11  C   UNL     1      -0.406   0.808  -1.841  1.00  0.00    +0.029 A 
ATOM     12  N   UNL     1       0.345  -0.115   0.024  1.00  0.00    -0.354 N 
ATOM     13  C   UNL     1       1.009   0.774  -1.886  1.00  0.00    +0.029 A 
ATOM     14  C   UNL     1       1.465   0.185  -0.720  1.00  0.00    +0.046 A 
ATOM     15  H   UNL     1       0.369  -0.516   0.952  1.00  0.00    +0.167 HD
BRANCH  14  16
ATOM     16  C   UNL     1       2.827  -0.082  -0.255  1.00  0.00    -0.002 A 
ATOM     17  C   UNL     1       3.862   0.815  -0.551  1.00  0.00    +0.010 A 
ATOM     18  C   UNL     1       3.127  -1.232   0.487  1.00  0.00    +0.010 A 
ATOM     19  C   UNL     1       5.165   0.573  -0.108  1.00  0.00    +0.001 A 
ATOM     20  C   UNL     1       4.431  -1.476   0.929  1.00  0.00    +0.001 A 
ATOM     21  C   UNL     1       5.448  -0.573   0.632  1.00  0.00    +0.000 A 
ENDBRANCH  14  16
ENDBRANCH   6  10
BRANCH   4  22
ATOM     22  O   UNL     1      -4.044  -2.751   1.308  1.00  0.00    -0.508 OA
ATOM     23  H   UNL     1      -4.965  -2.794   1.616  1.00  0.00    +0.293 HD
ENDBRANCH   4  22
TORSDOF 4
