REMARK SMILES Cc1cc(C)c(-c2[nH]c(-c3ccc(O)c([N+](=O)[O-])c3)cc2C)[nH]1
REMARK SMILES IDX 10 1 11 2 12 3 13 4 15 5 19 6 9 7 7 8 8 9 21 10 20 11 22 13
REMARK SMILES IDX 6 14 2 15 3 16 23 17 4 18 1 19 5 21 16 22 17 23 18 24 14 25
REMARK H PARENT 8 12 23 20 14 26
ROOT
ATOM      1  C   UNL     1       2.571  -0.022  -0.385  1.00  0.00    +0.005 A 
ATOM      2  C   UNL     1       3.538  -0.358  -1.347  1.00  0.00    +0.014 A 
ATOM      3  C   UNL     1       4.883  -0.542  -0.998  1.00  0.00    +0.054 A 
ATOM      4  C   UNL     1       5.279  -0.392   0.328  1.00  0.00    +0.194 A 
ATOM      5  C   UNL     1       4.321  -0.063   1.284  1.00  0.00    +0.311 A 
ATOM      6  C   UNL     1       2.974   0.131   0.946  1.00  0.00    +0.100 A 
ENDROOT
BRANCH   1   7
ATOM      7  C   UNL     1       1.175   0.170  -0.780  1.00  0.00    +0.046 A 
ATOM      8  C   UNL     1      -1.085   0.122  -0.595  1.00  0.00    +0.066 A 
ATOM      9  N   UNL     1       0.108  -0.151   0.029  1.00  0.00    -0.353 N 
ATOM     10  C   UNL     1      -0.793   0.640  -1.845  1.00  0.00    -0.023 A 
ATOM     11  C   UNL     1       0.629   0.658  -1.955  1.00  0.00    +0.032 A 
ATOM     12  H   UNL     1       0.177  -0.573   0.943  1.00  0.00    +0.167 HD
ATOM     13  C   UNL     1      -1.747   1.115  -2.882  1.00  0.00    +0.047 C 
BRANCH   8  14
ATOM     14  C   UNL     1      -2.339  -0.144   0.040  1.00  0.00    +0.065 A 
ATOM     15  C   UNL     1      -4.457  -0.899   0.197  1.00  0.00    +0.012 A 
ATOM     16  C   UNL     1      -4.096  -0.405   1.432  1.00  0.00    +0.026 A 
ATOM     17  N   UNL     1      -3.382  -0.726  -0.637  1.00  0.00    -0.357 N 
ATOM     18  C   UNL     1      -2.758   0.080   1.343  1.00  0.00    -0.024 A 
ATOM     19  C   UNL     1      -5.720  -1.517  -0.274  1.00  0.00    +0.064 C 
ATOM     20  H   UNL     1      -3.344  -1.008  -1.607  1.00  0.00    +0.166 HD
ATOM     21  C   UNL     1      -1.997   0.716   2.451  1.00  0.00    +0.047 C 
ENDBRANCH   8  14
ENDBRANCH   1   7
BRANCH   5  22
ATOM     22  N   UNL     1       4.699   0.089   2.673  1.00  0.00    +0.066 N 
ATOM     23  O   UNL     1       5.105  -0.919   3.268  1.00  0.00    -0.258 OA
ATOM     24  O   UNL     1       4.521   1.204   3.183  1.00  0.00    -0.258 OA
ENDBRANCH   5  22
BRANCH   4  25
ATOM     25  O   UNL     1       6.590  -0.542   0.669  1.00  0.00    -0.502 OA
ATOM     26  H   UNL     1       7.106  -0.820  -0.108  1.00  0.00    +0.293 HD
ENDBRANCH   4  25
TORSDOF 4
