MODEL 1
REMARK VINA RESULT:   -10.099      0.000      0.000
REMARK INTER + INTRA:         -12.368
REMARK INTER:                 -11.870
REMARK INTRA:                  -0.498
REMARK UNBOUND:                -0.498
REMARK SMILES Cc1cccc(C=C2C(=O)N(C)c3ncnc(-c4[nH]c(N5CCOCC5)cc4C)c32)c1
REMARK SMILES IDX 7 1 8 2 9 3 10 4 11 5 12 6 13 7 14 8 15 9 16 10 17 11 30 12
REMARK SMILES IDX 6 13 2 14 3 15 31 16 4 17 5 18 1 19 18 20 19 21 28 22 20 23
REMARK SMILES IDX 27 24 29 26 21 27 22 28 26 29 23 30 25 31 24 32
REMARK H PARENT 19 25
ROOT
ATOM      1  C   UNL     1      25.202   1.073  52.492  1.00  0.00    +0.022 C 
ATOM      2  C   UNL     1      24.175   0.397  53.034  1.00  0.00    +0.054 C 
ATOM      3  C   UNL     1      24.240  -0.584  54.184  1.00  0.00    +0.260 C 
ATOM      4  O   UNL     1      25.225  -0.967  54.785  1.00  0.00    -0.269 OA
ATOM      5  N   UNL     1      22.922  -0.950  54.407  1.00  0.00    -0.295 N 
ATOM      6  C   UNL     1      22.466  -1.854  55.426  1.00  0.00    +0.155 C 
ATOM      7  C   UNL     1      22.050  -0.309  53.521  1.00  0.00    +0.147 A 
ATOM      8  N   UNL     1      20.723  -0.487  53.521  1.00  0.00    -0.218 NA
ATOM      9  C   UNL     1      20.084   0.217  52.578  1.00  0.00    +0.225 A 
ATOM     10  N   UNL     1      20.652   1.034  51.674  1.00  0.00    -0.234 NA
ATOM     11  C   UNL     1      21.999   1.162  51.727  1.00  0.00    +0.100 A 
ATOM     12  C   UNL     1      22.761   0.506  52.660  1.00  0.00    +0.058 A 
ENDROOT
BRANCH   1  13
ATOM     13  C   UNL     1      26.627   0.972  52.833  1.00  0.00    -0.025 A 
ATOM     14  C   UNL     1      28.590  -0.439  53.165  1.00  0.00    -0.051 A 
ATOM     15  C   UNL     1      29.303   0.680  53.614  1.00  0.00    +0.003 A 
ATOM     16  C   UNL     1      27.247  -0.286  52.794  1.00  0.00    +0.011 A 
ATOM     17  C   UNL     1      28.690   1.932  53.672  1.00  0.00    +0.001 A 
ATOM     18  C   UNL     1      27.355   2.076  53.288  1.00  0.00    +0.008 A 
ATOM     19  C   UNL     1      29.237  -1.792  53.145  1.00  0.00    +0.044 C 
ENDBRANCH   1  13
BRANCH  11  20
ATOM     20  C   UNL     1      22.530   2.043  50.701  1.00  0.00    +0.070 A 
ATOM     21  N   UNL     1      23.277   3.160  51.004  1.00  0.00    -0.340 N 
ATOM     22  C   UNL     1      22.455   1.967  49.319  1.00  0.00    -0.022 A 
ATOM     23  C   UNL     1      23.629   3.847  49.867  1.00  0.00    +0.106 A 
ATOM     24  C   UNL     1      23.126   3.114  48.809  1.00  0.00    +0.050 A 
ATOM     25  H   UNL     1      23.487   3.459  51.943  1.00  0.00    +0.168 HD
ATOM     26  C   UNL     1      21.784   0.910  48.518  1.00  0.00    +0.047 C 
BRANCH  23  27
ATOM     27  N   UNL     1      24.305   5.036  49.913  1.00  0.00    -0.354 N 
ATOM     28  C   UNL     1      25.714   5.044  49.437  1.00  0.00    +0.146 C 
ATOM     29  C   UNL     1      24.093   5.975  51.041  1.00  0.00    +0.146 C 
ATOM     30  C   UNL     1      26.197   6.479  49.178  1.00  0.00    +0.181 C 
ATOM     31  C   UNL     1      24.651   7.368  50.703  1.00  0.00    +0.181 C 
ATOM     32  O   UNL     1      26.037   7.311  50.338  1.00  0.00    -0.378 OA
ENDBRANCH  23  27
ENDBRANCH  11  20
TORSDOF 3
ENDMDL
MODEL 2
REMARK VINA RESULT:    -9.815      2.320      6.749
REMARK INTER + INTRA:         -12.034
REMARK INTER:                 -11.206
REMARK INTRA:                  -0.827
REMARK UNBOUND:                -0.498
REMARK SMILES Cc1cccc(C=C2C(=O)N(C)c3ncnc(-c4[nH]c(N5CCOCC5)cc4C)c32)c1
REMARK SMILES IDX 7 1 8 2 9 3 10 4 11 5 12 6 13 7 14 8 15 9 16 10 17 11 30 12
REMARK SMILES IDX 6 13 2 14 3 15 31 16 4 17 5 18 1 19 18 20 19 21 28 22 20 23
REMARK SMILES IDX 27 24 29 26 21 27 22 28 26 29 23 30 25 31 24 32
REMARK H PARENT 19 25
ROOT
ATOM      1  C   UNL     1      25.076   3.964  49.790  1.00  0.00    +0.022 C 
ATOM      2  C   UNL     1      23.835   3.550  49.484  1.00  0.00    +0.054 C 
ATOM      3  C   UNL     1      22.945   4.083  48.384  1.00  0.00    +0.260 C 
ATOM      4  O   UNL     1      23.170   5.001  47.620  1.00  0.00    -0.269 OA
ATOM      5  N   UNL     1      21.810   3.289  48.435  1.00  0.00    -0.295 N 
ATOM      6  C   UNL     1      20.675   3.394  47.561  1.00  0.00    +0.155 C 
ATOM      7  C   UNL     1      21.897   2.326  49.446  1.00  0.00    +0.147 A 
ATOM      8  N   UNL     1      20.936   1.433  49.710  1.00  0.00    -0.218 NA
ATOM      9  C   UNL     1      21.225   0.614  50.729  1.00  0.00    +0.225 A 
ATOM     10  N   UNL     1      22.345   0.636  51.473  1.00  0.00    -0.234 NA
ATOM     11  C   UNL     1      23.272   1.570  51.156  1.00  0.00    +0.100 A 
ATOM     12  C   UNL     1      23.098   2.452  50.120  1.00  0.00    +0.058 A 
ENDROOT
BRANCH   1  13
ATOM     13  C   UNL     1      25.832   5.068  49.185  1.00  0.00    -0.025 A 
ATOM     14  C   UNL     1      27.948   5.898  48.298  1.00  0.00    -0.051 A 
ATOM     15  C   UNL     1      27.380   7.171  48.165  1.00  0.00    +0.003 A 
ATOM     16  C   UNL     1      27.172   4.857  48.826  1.00  0.00    +0.011 A 
ATOM     17  C   UNL     1      26.053   7.394  48.535  1.00  0.00    +0.001 A 
ATOM     18  C   UNL     1      25.284   6.347  49.048  1.00  0.00    +0.008 A 
ATOM     19  C   UNL     1      29.388   5.669  47.941  1.00  0.00    +0.044 C 
ENDBRANCH   1  13
BRANCH  11  20
ATOM     20  C   UNL     1      24.437   1.537  52.023  1.00  0.00    +0.070 A 
ATOM     21  N   UNL     1      25.388   0.544  51.941  1.00  0.00    -0.340 N 
ATOM     22  C   UNL     1      24.850   2.415  53.012  1.00  0.00    -0.022 A 
ATOM     23  C   UNL     1      26.367   0.714  52.890  1.00  0.00    +0.106 A 
ATOM     24  C   UNL     1      26.047   1.877  53.564  1.00  0.00    +0.050 A 
ATOM     25  H   UNL     1      25.338  -0.233  51.302  1.00  0.00    +0.168 HD
ATOM     26  C   UNL     1      24.168   3.666  53.438  1.00  0.00    +0.047 C 
BRANCH  23  27
ATOM     27  N   UNL     1      27.382  -0.189  53.062  1.00  0.00    -0.354 N 
ATOM     28  C   UNL     1      27.042  -1.633  52.962  1.00  0.00    +0.146 C 
ATOM     29  C   UNL     1      28.447   0.065  54.062  1.00  0.00    +0.146 C 
ATOM     30  C   UNL     1      28.308  -2.483  52.781  1.00  0.00    +0.181 C 
ATOM     31  C   UNL     1      29.650  -0.865  53.825  1.00  0.00    +0.181 C 
ATOM     32  O   UNL     1      29.261  -2.247  53.829  1.00  0.00    -0.378 OA
ENDBRANCH  23  27
ENDBRANCH  11  20
TORSDOF 3
ENDMDL
MODEL 3
REMARK VINA RESULT:    -9.562      1.048      1.792
REMARK INTER + INTRA:         -11.737
REMARK INTER:                 -10.777
REMARK INTRA:                  -0.959
REMARK UNBOUND:                -0.498
REMARK SMILES Cc1cccc(C=C2C(=O)N(C)c3ncnc(-c4[nH]c(N5CCOCC5)cc4C)c32)c1
REMARK SMILES IDX 7 1 8 2 9 3 10 4 11 5 12 6 13 7 14 8 15 9 16 10 17 11 30 12
REMARK SMILES IDX 6 13 2 14 3 15 31 16 4 17 5 18 1 19 18 20 19 21 28 22 20 23
REMARK SMILES IDX 27 24 29 26 21 27 22 28 26 29 23 30 25 31 24 32
REMARK H PARENT 19 25
ROOT
ATOM      1  C   UNL     1      24.505   1.108  52.204  1.00  0.00    +0.022 C 
ATOM      2  C   UNL     1      23.338   0.576  52.605  1.00  0.00    +0.054 C 
ATOM      3  C   UNL     1      23.144  -0.507  53.642  1.00  0.00    +0.260 C 
ATOM      4  O   UNL     1      23.997  -1.117  54.256  1.00  0.00    -0.269 OA
ATOM      5  N   UNL     1      21.769  -0.652  53.743  1.00  0.00    -0.295 N 
ATOM      6  C   UNL     1      21.086  -1.555  54.627  1.00  0.00    +0.155 C 
ATOM      7  C   UNL     1      21.092   0.217  52.882  1.00  0.00    +0.147 A 
ATOM      8  N   UNL     1      19.758   0.279  52.782  1.00  0.00    -0.218 NA
ATOM      9  C   UNL     1      19.326   1.175  51.885  1.00  0.00    +0.225 A 
ATOM     10  N   UNL     1      20.095   1.961  51.112  1.00  0.00    -0.234 NA
ATOM     11  C   UNL     1      21.435   1.841  51.260  1.00  0.00    +0.100 A 
ATOM     12  C   UNL     1      21.998   0.973  52.160  1.00  0.00    +0.058 A 
ENDROOT
BRANCH   1  13
ATOM     13  C   UNL     1      25.861   0.722  52.617  1.00  0.00    -0.025 A 
ATOM     14  C   UNL     1      28.052   1.399  53.451  1.00  0.00    -0.051 A 
ATOM     15  C   UNL     1      28.509   0.086  53.281  1.00  0.00    +0.003 A 
ATOM     16  C   UNL     1      26.731   1.712  53.098  1.00  0.00    +0.011 A 
ATOM     17  C   UNL     1      27.655  -0.901  52.787  1.00  0.00    +0.001 A 
ATOM     18  C   UNL     1      26.337  -0.582  52.451  1.00  0.00    +0.008 A 
ATOM     19  C   UNL     1      28.983   2.469  53.940  1.00  0.00    +0.044 C 
ENDBRANCH   1  13
BRANCH  11  20
ATOM     20  C   UNL     1      22.189   2.709  50.371  1.00  0.00    +0.070 A 
ATOM     21  N   UNL     1      22.807   3.858  50.814  1.00  0.00    -0.340 N 
ATOM     22  C   UNL     1      22.469   2.591  49.020  1.00  0.00    -0.022 A 
ATOM     23  C   UNL     1      23.420   4.522  49.779  1.00  0.00    +0.106 A 
ATOM     24  C   UNL     1      23.221   3.744  48.655  1.00  0.00    +0.050 A 
ATOM     25  H   UNL     1      22.765   4.190  51.764  1.00  0.00    +0.168 HD
ATOM     26  C   UNL     1      22.049   1.490  48.113  1.00  0.00    +0.047 C 
BRANCH  23  27
ATOM     27  N   UNL     1      24.035   5.733  49.951  1.00  0.00    -0.354 N 
ATOM     28  C   UNL     1      23.167   6.935  50.062  1.00  0.00    +0.146 C 
ATOM     29  C   UNL     1      25.312   6.029  49.258  1.00  0.00    +0.146 C 
ATOM     30  C   UNL     1      23.949   8.125  50.637  1.00  0.00    +0.181 C 
ATOM     31  C   UNL     1      25.994   7.262  49.875  1.00  0.00    +0.181 C 
ATOM     32  O   UNL     1      25.130   8.407  49.868  1.00  0.00    -0.378 OA
ENDBRANCH  23  27
ENDBRANCH  11  20
TORSDOF 3
ENDMDL
MODEL 4
REMARK VINA RESULT:    -9.554      2.759      6.696
REMARK INTER + INTRA:         -11.727
REMARK INTER:                 -10.749
REMARK INTRA:                  -0.977
REMARK UNBOUND:                -0.498
REMARK SMILES Cc1cccc(C=C2C(=O)N(C)c3ncnc(-c4[nH]c(N5CCOCC5)cc4C)c32)c1
REMARK SMILES IDX 7 1 8 2 9 3 10 4 11 5 12 6 13 7 14 8 15 9 16 10 17 11 30 12
REMARK SMILES IDX 6 13 2 14 3 15 31 16 4 17 5 18 1 19 18 20 19 21 28 22 20 23
REMARK SMILES IDX 27 24 29 26 21 27 22 28 26 29 23 30 25 31 24 32
REMARK H PARENT 19 25
ROOT
ATOM      1  C   UNL     1      22.557   1.839  50.417  1.00  0.00    +0.022 C 
ATOM      2  C   UNL     1      21.557   1.223  51.068  1.00  0.00    +0.054 C 
ATOM      3  C   UNL     1      20.111   1.132  50.634  1.00  0.00    +0.260 C 
ATOM      4  O   UNL     1      19.591   1.632  49.656  1.00  0.00    -0.269 OA
ATOM      5  N   UNL     1      19.504   0.344  51.600  1.00  0.00    -0.295 N 
ATOM      6  C   UNL     1      18.123  -0.052  51.610  1.00  0.00    +0.155 C 
ATOM      7  C   UNL     1      20.412  -0.058  52.585  1.00  0.00    +0.147 A 
ATOM      8  N   UNL     1      20.084  -0.824  53.633  1.00  0.00    -0.218 NA
ATOM      9  C   UNL     1      21.108  -1.077  54.458  1.00  0.00    +0.225 A 
ATOM     10  N   UNL     1      22.368  -0.627  54.322  1.00  0.00    -0.234 NA
ATOM     11  C   UNL     1      22.628   0.148  53.243  1.00  0.00    +0.100 A 
ATOM     12  C   UNL     1      21.665   0.460  52.317  1.00  0.00    +0.058 A 
ENDROOT
BRANCH   1  13
ATOM     13  C   UNL     1      22.477   2.624  49.178  1.00  0.00    -0.025 A 
ATOM     14  C   UNL     1      22.251   4.807  48.110  1.00  0.00    -0.051 A 
ATOM     15  C   UNL     1      22.169   4.175  46.863  1.00  0.00    +0.003 A 
ATOM     16  C   UNL     1      22.386   4.022  49.264  1.00  0.00    +0.011 A 
ATOM     17  C   UNL     1      22.241   2.785  46.770  1.00  0.00    +0.001 A 
ATOM     18  C   UNL     1      22.389   2.012  47.923  1.00  0.00    +0.008 A 
ATOM     19  C   UNL     1      22.129   6.298  48.214  1.00  0.00    +0.044 C 
ENDBRANCH   1  13
BRANCH  11  20
ATOM     20  C   UNL     1      24.005   0.608  53.187  1.00  0.00    +0.070 A 
ATOM     21  N   UNL     1      25.070  -0.264  53.134  1.00  0.00    -0.340 N 
ATOM     22  C   UNL     1      24.526   1.891  53.143  1.00  0.00    -0.022 A 
ATOM     23  C   UNL     1      26.266   0.413  53.127  1.00  0.00    +0.106 A 
ATOM     24  C   UNL     1      25.944   1.757  53.129  1.00  0.00    +0.050 A 
ATOM     25  H   UNL     1      24.979  -1.267  53.154  1.00  0.00    +0.168 HD
ATOM     26  C   UNL     1      23.762   3.166  53.136  1.00  0.00    +0.047 C 
BRANCH  23  27
ATOM     27  N   UNL     1      27.472  -0.235  53.158  1.00  0.00    -0.354 N 
ATOM     28  C   UNL     1      27.453  -1.721  53.188  1.00  0.00    +0.146 C 
ATOM     29  C   UNL     1      28.601   0.324  53.939  1.00  0.00    +0.146 C 
ATOM     30  C   UNL     1      28.831  -2.294  52.825  1.00  0.00    +0.181 C 
ATOM     31  C   UNL     1      29.927  -0.345  53.536  1.00  0.00    +0.181 C 
ATOM     32  O   UNL     1      29.865  -1.772  53.674  1.00  0.00    -0.378 OA
ENDBRANCH  23  27
ENDBRANCH  11  20
TORSDOF 3
ENDMDL
MODEL 5
REMARK VINA RESULT:    -8.870      3.232      6.042
REMARK INTER + INTRA:         -10.923
REMARK INTER:                  -9.769
REMARK INTRA:                  -1.154
REMARK UNBOUND:                -0.498
REMARK SMILES Cc1cccc(C=C2C(=O)N(C)c3ncnc(-c4[nH]c(N5CCOCC5)cc4C)c32)c1
REMARK SMILES IDX 7 1 8 2 9 3 10 4 11 5 12 6 13 7 14 8 15 9 16 10 17 11 30 12
REMARK SMILES IDX 6 13 2 14 3 15 31 16 4 17 5 18 1 19 18 20 19 21 28 22 20 23
REMARK SMILES IDX 27 24 29 26 21 27 22 28 26 29 23 30 25 31 24 32
REMARK H PARENT 19 25
ROOT
ATOM      1  C   UNL     1      23.359   2.862  51.362  1.00  0.00    +0.022 C 
ATOM      2  C   UNL     1      23.795   1.888  52.179  1.00  0.00    +0.054 C 
ATOM      3  C   UNL     1      25.193   1.727  52.733  1.00  0.00    +0.260 C 
ATOM      4  O   UNL     1      26.171   2.411  52.506  1.00  0.00    -0.269 OA
ATOM      5  N   UNL     1      25.114   0.622  53.567  1.00  0.00    -0.295 N 
ATOM      6  C   UNL     1      26.193   0.084  54.348  1.00  0.00    +0.155 C 
ATOM      7  C   UNL     1      23.825   0.079  53.586  1.00  0.00    +0.147 A 
ATOM      8  N   UNL     1      23.478  -0.993  54.309  1.00  0.00    -0.218 NA
ATOM      9  C   UNL     1      22.194  -1.346  54.167  1.00  0.00    +0.225 A 
ATOM     10  N   UNL     1      21.284  -0.741  53.382  1.00  0.00    -0.234 NA
ATOM     11  C   UNL     1      21.706   0.332  52.674  1.00  0.00    +0.100 A 
ATOM     12  C   UNL     1      22.992   0.801  52.751  1.00  0.00    +0.058 A 
ENDROOT
BRANCH   1  13
ATOM     13  C   UNL     1      24.140   3.950  50.760  1.00  0.00    -0.025 A 
ATOM     14  C   UNL     1      24.537   6.348  50.539  1.00  0.00    -0.051 A 
ATOM     15  C   UNL     1      25.486   6.087  49.543  1.00  0.00    +0.003 A 
ATOM     16  C   UNL     1      23.856   5.274  51.129  1.00  0.00    +0.011 A 
ATOM     17  C   UNL     1      25.763   4.774  49.158  1.00  0.00    +0.001 A 
ATOM     18  C   UNL     1      25.088   3.711  49.761  1.00  0.00    +0.008 A 
ATOM     19  C   UNL     1      24.208   7.761  50.921  1.00  0.00    +0.044 C 
ENDBRANCH   1  13
BRANCH  11  20
ATOM     20  C   UNL     1      20.667   0.909  51.837  1.00  0.00    +0.070 A 
ATOM     21  N   UNL     1      19.554   1.524  52.365  1.00  0.00    -0.340 N 
ATOM     22  C   UNL     1      20.568   1.001  50.458  1.00  0.00    -0.022 A 
ATOM     23  C   UNL     1      18.705   1.951  51.373  1.00  0.00    +0.106 A 
ATOM     24  C   UNL     1      19.324   1.635  50.179  1.00  0.00    +0.050 A 
ATOM     25  H   UNL     1      19.366   1.599  53.352  1.00  0.00    +0.168 HD
ATOM     26  C   UNL     1      21.553   0.514  49.457  1.00  0.00    +0.047 C 
BRANCH  23  27
ATOM     27  N   UNL     1      17.491   2.522  51.646  1.00  0.00    -0.354 N 
ATOM     28  C   UNL     1      16.272   1.730  51.336  1.00  0.00    +0.146 C 
ATOM     29  C   UNL     1      17.281   3.975  51.429  1.00  0.00    +0.146 C 
ATOM     30  C   UNL     1      15.042   2.314  52.045  1.00  0.00    +0.181 C 
ATOM     31  C   UNL     1      16.004   4.453  52.139  1.00  0.00    +0.181 C 
ATOM     32  O   UNL     1      14.853   3.702  51.725  1.00  0.00    -0.378 OA
ENDBRANCH  23  27
ENDBRANCH  11  20
TORSDOF 3
ENDMDL
MODEL 6
REMARK VINA RESULT:    -8.521      2.668      6.191
REMARK INTER + INTRA:         -10.513
REMARK INTER:                  -9.202
REMARK INTRA:                  -1.311
REMARK UNBOUND:                -0.498
REMARK SMILES Cc1cccc(C=C2C(=O)N(C)c3ncnc(-c4[nH]c(N5CCOCC5)cc4C)c32)c1
REMARK SMILES IDX 7 1 8 2 9 3 10 4 11 5 12 6 13 7 14 8 15 9 16 10 17 11 30 12
REMARK SMILES IDX 6 13 2 14 3 15 31 16 4 17 5 18 1 19 18 20 19 21 28 22 20 23
REMARK SMILES IDX 27 24 29 26 21 27 22 28 26 29 23 30 25 31 24 32
REMARK H PARENT 19 25
ROOT
ATOM      1  C   UNL     1      19.873   1.329  51.094  1.00  0.00    +0.022 C 
ATOM      2  C   UNL     1      20.688   0.707  51.963  1.00  0.00    +0.054 C 
ATOM      3  C   UNL     1      20.290  -0.301  53.017  1.00  0.00    +0.260 C 
ATOM      4  O   UNL     1      19.173  -0.689  53.297  1.00  0.00    -0.269 OA
ATOM      5  N   UNL     1      21.488  -0.692  53.597  1.00  0.00    -0.295 N 
ATOM      6  C   UNL     1      21.632  -1.665  54.644  1.00  0.00    +0.155 C 
ATOM      7  C   UNL     1      22.580  -0.036  53.022  1.00  0.00    +0.147 A 
ATOM      8  N   UNL     1      23.850  -0.229  53.398  1.00  0.00    -0.218 NA
ATOM      9  C   UNL     1      24.734   0.514  52.720  1.00  0.00    +0.225 A 
ATOM     10  N   UNL     1      24.448   1.402  51.752  1.00  0.00    -0.234 NA
ATOM     11  C   UNL     1      23.144   1.553  51.426  1.00  0.00    +0.100 A 
ATOM     12  C   UNL     1      22.148   0.833  52.036  1.00  0.00    +0.058 A 
ENDROOT
BRANCH   1  13
ATOM     13  C   UNL     1      18.410   1.237  51.006  1.00  0.00    -0.025 A 
ATOM     14  C   UNL     1      16.450   0.180  50.008  1.00  0.00    -0.051 A 
ATOM     15  C   UNL     1      15.631   1.101  50.673  1.00  0.00    +0.003 A 
ATOM     16  C   UNL     1      17.841   0.268  50.166  1.00  0.00    +0.011 A 
ATOM     17  C   UNL     1      16.190   2.078  51.497  1.00  0.00    +0.001 A 
ATOM     18  C   UNL     1      17.575   2.149  51.659  1.00  0.00    +0.008 A 
ATOM     19  C   UNL     1      15.852  -0.842  49.088  1.00  0.00    +0.044 C 
ENDBRANCH   1  13
BRANCH  11  20
ATOM     20  C   UNL     1      22.924   2.547  50.389  1.00  0.00    +0.070 A 
ATOM     21  N   UNL     1      23.232   3.878  50.568  1.00  0.00    -0.340 N 
ATOM     22  C   UNL     1      22.440   2.411  49.098  1.00  0.00    -0.022 A 
ATOM     23  C   UNL     1      22.898   4.618  49.460  1.00  0.00    +0.106 A 
ATOM     24  C   UNL     1      22.406   3.719  48.535  1.00  0.00    +0.050 A 
ATOM     25  H   UNL     1      23.603   4.260  51.423  1.00  0.00    +0.168 HD
ATOM     26  C   UNL     1      22.012   1.153  48.431  1.00  0.00    +0.047 C 
BRANCH  23  27
ATOM     27  N   UNL     1      23.033   5.980  49.425  1.00  0.00    -0.354 N 
ATOM     28  C   UNL     1      23.338   6.675  50.704  1.00  0.00    +0.146 C 
ATOM     29  C   UNL     1      22.165   6.795  48.541  1.00  0.00    +0.146 C 
ATOM     30  C   UNL     1      23.843   8.102  50.446  1.00  0.00    +0.181 C 
ATOM     31  C   UNL     1      22.730   8.217  48.383  1.00  0.00    +0.181 C 
ATOM     32  O   UNL     1      22.915   8.859  49.654  1.00  0.00    -0.378 OA
ENDBRANCH  23  27
ENDBRANCH  11  20
TORSDOF 3
ENDMDL
MODEL 7
REMARK VINA RESULT:    -8.438      4.447      7.457
REMARK INTER + INTRA:         -10.416
REMARK INTER:                  -9.901
REMARK INTRA:                  -0.515
REMARK UNBOUND:                -0.498
REMARK SMILES Cc1cccc(C=C2C(=O)N(C)c3ncnc(-c4[nH]c(N5CCOCC5)cc4C)c32)c1
REMARK SMILES IDX 7 1 8 2 9 3 10 4 11 5 12 6 13 7 14 8 15 9 16 10 17 11 30 12
REMARK SMILES IDX 6 13 2 14 3 15 31 16 4 17 5 18 1 19 18 20 19 21 28 22 20 23
REMARK SMILES IDX 27 24 29 26 21 27 22 28 26 29 23 30 25 31 24 32
REMARK H PARENT 19 25
ROOT
ATOM      1  C   UNL     1      20.987   2.215  52.308  1.00  0.00    +0.022 C 
ATOM      2  C   UNL     1      21.484   3.411  51.948  1.00  0.00    +0.054 C 
ATOM      3  C   UNL     1      22.872   3.939  52.233  1.00  0.00    +0.260 C 
ATOM      4  O   UNL     1      23.760   3.405  52.869  1.00  0.00    -0.269 OA
ATOM      5  N   UNL     1      22.914   5.173  51.601  1.00  0.00    -0.295 N 
ATOM      6  C   UNL     1      24.046   6.056  51.565  1.00  0.00    +0.155 C 
ATOM      7  C   UNL     1      21.706   5.468  50.962  1.00  0.00    +0.147 A 
ATOM      8  N   UNL     1      21.479   6.597  50.280  1.00  0.00    -0.218 NA
ATOM      9  C   UNL     1      20.247   6.676  49.760  1.00  0.00    +0.225 A 
ATOM     10  N   UNL     1      19.273   5.757  49.881  1.00  0.00    -0.234 NA
ATOM     11  C   UNL     1      19.569   4.643  50.590  1.00  0.00    +0.100 A 
ATOM     12  C   UNL     1      20.802   4.439  51.154  1.00  0.00    +0.058 A 
ENDROOT
BRANCH   1  13
ATOM     13  C   UNL     1      21.638   1.175  53.115  1.00  0.00    -0.025 A 
ATOM     14  C   UNL     1      23.577  -0.259  53.486  1.00  0.00    -0.051 A 
ATOM     15  C   UNL     1      22.884  -0.909  54.515  1.00  0.00    +0.003 A 
ATOM     16  C   UNL     1      22.939   0.770  52.779  1.00  0.00    +0.011 A 
ATOM     17  C   UNL     1      21.584  -0.524  54.844  1.00  0.00    +0.001 A 
ATOM     18  C   UNL     1      20.961   0.511  54.143  1.00  0.00    +0.008 A 
ATOM     19  C   UNL     1      24.958  -0.703  53.103  1.00  0.00    +0.044 C 
ENDBRANCH   1  13
BRANCH  11  20
ATOM     20  C   UNL     1      18.453   3.716  50.691  1.00  0.00    +0.070 A 
ATOM     21  N   UNL     1      17.320   4.005  51.417  1.00  0.00    -0.340 N 
ATOM     22  C   UNL     1      18.263   2.470  50.117  1.00  0.00    -0.022 A 
ATOM     23  C   UNL     1      16.431   2.958  51.388  1.00  0.00    +0.106 A 
ATOM     24  C   UNL     1      17.003   1.995  50.580  1.00  0.00    +0.050 A 
ATOM     25  H   UNL     1      17.189   4.854  51.944  1.00  0.00    +0.168 HD
ATOM     26  C   UNL     1      19.197   1.749  49.212  1.00  0.00    +0.047 C 
BRANCH  23  27
ATOM     27  N   UNL     1      15.262   2.973  52.101  1.00  0.00    -0.354 N 
ATOM     28  C   UNL     1      15.042   4.106  53.037  1.00  0.00    +0.146 C 
ATOM     29  C   UNL     1      14.682   1.707  52.613  1.00  0.00    +0.146 C 
ATOM     30  C   UNL     1      13.566   4.197  53.451  1.00  0.00    +0.181 C 
ATOM     31  C   UNL     1      13.220   1.913  53.043  1.00  0.00    +0.181 C 
ATOM     32  O   UNL     1      13.094   2.963  54.013  1.00  0.00    -0.378 OA
ENDBRANCH  23  27
ENDBRANCH  11  20
TORSDOF 3
ENDMDL
MODEL 8
REMARK VINA RESULT:    -8.399      2.018      6.210
REMARK INTER + INTRA:         -10.370
REMARK INTER:                 -10.120
REMARK INTRA:                  -0.250
REMARK UNBOUND:                -0.498
REMARK SMILES Cc1cccc(C=C2C(=O)N(C)c3ncnc(-c4[nH]c(N5CCOCC5)cc4C)c32)c1
REMARK SMILES IDX 7 1 8 2 9 3 10 4 11 5 12 6 13 7 14 8 15 9 16 10 17 11 30 12
REMARK SMILES IDX 6 13 2 14 3 15 31 16 4 17 5 18 1 19 18 20 19 21 28 22 20 23
REMARK SMILES IDX 27 24 29 26 21 27 22 28 26 29 23 30 25 31 24 32
REMARK H PARENT 19 25
ROOT
ATOM      1  C   UNL     1      23.777   2.682  50.597  1.00  0.00    +0.022 C 
ATOM      2  C   UNL     1      22.559   2.548  50.046  1.00  0.00    +0.054 C 
ATOM      3  C   UNL     1      22.033   3.262  48.822  1.00  0.00    +0.260 C 
ATOM      4  O   UNL     1      22.592   4.108  48.152  1.00  0.00    -0.269 OA
ATOM      5  N   UNL     1      20.766   2.735  48.625  1.00  0.00    -0.295 N 
ATOM      6  C   UNL     1      19.871   3.084  47.558  1.00  0.00    +0.155 C 
ATOM      7  C   UNL     1      20.448   1.778  49.594  1.00  0.00    +0.147 A 
ATOM      8  N   UNL     1      19.285   1.116  49.635  1.00  0.00    -0.218 NA
ATOM      9  C   UNL     1      19.190   0.254  50.656  1.00  0.00    +0.225 A 
ATOM     10  N   UNL     1      20.124   0.032  51.597  1.00  0.00    -0.234 NA
ATOM     11  C   UNL     1      21.273   0.740  51.499  1.00  0.00    +0.100 A 
ATOM     12  C   UNL     1      21.495   1.638  50.486  1.00  0.00    +0.058 A 
ENDROOT
BRANCH   1  13
ATOM     13  C   UNL     1      24.854   3.594  50.191  1.00  0.00    -0.025 A 
ATOM     14  C   UNL     1      25.669   5.884  49.981  1.00  0.00    -0.051 A 
ATOM     15  C   UNL     1      26.800   5.407  49.307  1.00  0.00    +0.003 A 
ATOM     16  C   UNL     1      24.692   4.972  50.403  1.00  0.00    +0.011 A 
ATOM     17  C   UNL     1      26.961   4.040  49.078  1.00  0.00    +0.001 A 
ATOM     18  C   UNL     1      25.989   3.137  49.514  1.00  0.00    +0.008 A 
ATOM     19  C   UNL     1      25.475   7.358  50.187  1.00  0.00    +0.044 C 
ENDBRANCH   1  13
BRANCH  11  20
ATOM     20  C   UNL     1      22.214   0.454  52.568  1.00  0.00    +0.070 A 
ATOM     21  N   UNL     1      23.573   0.391  52.355  1.00  0.00    -0.340 N 
ATOM     22  C   UNL     1      22.003   0.234  53.920  1.00  0.00    -0.022 A 
ATOM     23  C   UNL     1      24.243   0.069  53.511  1.00  0.00    +0.106 A 
ATOM     24  C   UNL     1      23.279  -0.029  54.495  1.00  0.00    +0.050 A 
ATOM     25  H   UNL     1      24.008   0.512  51.455  1.00  0.00    +0.168 HD
ATOM     26  C   UNL     1      20.699   0.244  54.635  1.00  0.00    +0.047 C 
BRANCH  23  27
ATOM     27  N   UNL     1      25.597  -0.131  53.538  1.00  0.00    -0.354 N 
ATOM     28  C   UNL     1      26.119  -1.385  52.935  1.00  0.00    +0.146 C 
ATOM     29  C   UNL     1      26.393   0.293  54.716  1.00  0.00    +0.146 C 
ATOM     30  C   UNL     1      27.631  -1.287  52.686  1.00  0.00    +0.181 C 
ATOM     31  C   UNL     1      27.894   0.316  54.380  1.00  0.00    +0.181 C 
ATOM     32  O   UNL     1      28.346  -0.953  53.886  1.00  0.00    -0.378 OA
ENDBRANCH  23  27
ENDBRANCH  11  20
TORSDOF 3
ENDMDL
MODEL 9
REMARK VINA RESULT:    -8.272      2.078      3.008
REMARK INTER + INTRA:         -10.220
REMARK INTER:                  -9.015
REMARK INTRA:                  -1.204
REMARK UNBOUND:                -0.498
REMARK SMILES Cc1cccc(C=C2C(=O)N(C)c3ncnc(-c4[nH]c(N5CCOCC5)cc4C)c32)c1
REMARK SMILES IDX 7 1 8 2 9 3 10 4 11 5 12 6 13 7 14 8 15 9 16 10 17 11 30 12
REMARK SMILES IDX 6 13 2 14 3 15 31 16 4 17 5 18 1 19 18 20 19 21 28 22 20 23
REMARK SMILES IDX 27 24 29 26 21 27 22 28 26 29 23 30 25 31 24 32
REMARK H PARENT 19 25
ROOT
ATOM      1  C   UNL     1      24.193   1.838  52.652  1.00  0.00    +0.022 C 
ATOM      2  C   UNL     1      22.904   1.458  52.669  1.00  0.00    +0.054 C 
ATOM      3  C   UNL     1      22.361   0.112  53.092  1.00  0.00    +0.260 C 
ATOM      4  O   UNL     1      22.985  -0.870  53.441  1.00  0.00    -0.269 OA
ATOM      5  N   UNL     1      20.984   0.245  52.996  1.00  0.00    -0.295 N 
ATOM      6  C   UNL     1      20.021  -0.771  53.321  1.00  0.00    +0.155 C 
ATOM      7  C   UNL     1      20.616   1.521  52.558  1.00  0.00    +0.147 A 
ATOM      8  N   UNL     1      19.348   1.911  52.379  1.00  0.00    -0.218 NA
ATOM      9  C   UNL     1      19.228   3.171  51.942  1.00  0.00    +0.225 A 
ATOM     10  N   UNL     1      20.236   4.019  51.672  1.00  0.00    -0.234 NA
ATOM     11  C   UNL     1      21.493   3.556  51.869  1.00  0.00    +0.100 A 
ATOM     12  C   UNL     1      21.743   2.289  52.332  1.00  0.00    +0.058 A 
ENDROOT
BRANCH   1  13
ATOM     13  C   UNL     1      25.376   1.027  52.966  1.00  0.00    -0.025 A 
ATOM     14  C   UNL     1      26.982   0.251  54.632  1.00  0.00    -0.051 A 
ATOM     15  C   UNL     1      27.712  -0.378  53.617  1.00  0.00    +0.003 A 
ATOM     16  C   UNL     1      25.825   0.968  54.295  1.00  0.00    +0.011 A 
ATOM     17  C   UNL     1      27.283  -0.311  52.292  1.00  0.00    +0.001 A 
ATOM     18  C   UNL     1      26.122   0.394  51.967  1.00  0.00    +0.008 A 
ATOM     19  C   UNL     1      27.468   0.216  56.051  1.00  0.00    +0.044 C 
ENDBRANCH   1  13
BRANCH  11  20
ATOM     20  C   UNL     1      22.520   4.527  51.531  1.00  0.00    +0.070 A 
ATOM     21  N   UNL     1      22.670   5.026  50.256  1.00  0.00    -0.340 N 
ATOM     22  C   UNL     1      23.470   5.147  52.325  1.00  0.00    -0.022 A 
ATOM     23  C   UNL     1      23.730   5.897  50.184  1.00  0.00    +0.106 A 
ATOM     24  C   UNL     1      24.238   5.985  51.466  1.00  0.00    +0.050 A 
ATOM     25  H   UNL     1      22.106   4.743  49.470  1.00  0.00    +0.168 HD
ATOM     26  C   UNL     1      23.674   4.961  53.786  1.00  0.00    +0.047 C 
BRANCH  23  27
ATOM     27  N   UNL     1      24.131   6.463  49.004  1.00  0.00    -0.354 N 
ATOM     28  C   UNL     1      25.427   7.192  48.997  1.00  0.00    +0.146 C 
ATOM     29  C   UNL     1      23.137   7.086  48.097  1.00  0.00    +0.146 C 
ATOM     30  C   UNL     1      25.921   7.418  47.560  1.00  0.00    +0.181 C 
ATOM     31  C   UNL     1      23.740   7.313  46.701  1.00  0.00    +0.181 C 
ATOM     32  O   UNL     1      24.940   8.098  46.762  1.00  0.00    -0.378 OA
ENDBRANCH  23  27
ENDBRANCH  11  20
TORSDOF 3
ENDMDL
