MODEL 1
REMARK VINA RESULT:    -7.836      0.000      0.000
REMARK INTER + INTRA:         -10.119
REMARK INTER:                  -8.981
REMARK INTRA:                  -1.138
REMARK UNBOUND:                -1.138
REMARK SMILES N#CC(C#N)=C(N)C(C#N)=C1C(=O)Nc2ncnc(-c3ccccc3)c21
REMARK SMILES IDX 1 1 2 2 3 3 4 4 5 5 6 6 7 7 8 10 9 11 11 12 10 13 12 14
REMARK SMILES IDX 26 15 13 16 14 17 19 18 15 19 18 20 16 21 17 22 20 24 21 25
REMARK SMILES IDX 25 26 22 27 24 28 23 29
REMARK H PARENT 7 8 7 9 14 23
ROOT
ATOM      1  N   UNL     1      24.248   7.031  47.576  1.00  0.00    -0.192 NA
ATOM      2  C   UNL     1      24.038   6.087  48.218  1.00  0.00    +0.113 C 
ATOM      3  C   UNL     1      23.757   4.963  49.043  1.00  0.00    +0.153 C 
ATOM      4  C   UNL     1      23.019   3.890  48.463  1.00  0.00    +0.113 C 
ATOM      5  N   UNL     1      22.409   2.990  48.056  1.00  0.00    -0.192 NA
ATOM      6  C   UNL     1      24.168   4.927  50.340  1.00  0.00    +0.079 C 
ENDROOT
BRANCH   6   7
ATOM      7  N   UNL     1      24.885   5.937  50.976  1.00  0.00    -0.396 N 
ATOM      8  H   UNL     1      24.359   6.773  51.234  1.00  0.00    +0.156 HD
ATOM      9  H   UNL     1      25.800   6.168  50.586  1.00  0.00    +0.156 HD
ENDBRANCH   6   7
BRANCH   6  10
ATOM     10  C   UNL     1      23.884   3.739  51.182  1.00  0.00    +0.091 C 
ATOM     11  C   UNL     1      22.634   3.807  51.874  1.00  0.00    +0.102 C 
ATOM     12  C   UNL     1      24.765   2.734  51.383  1.00  0.00    +0.073 C 
ATOM     13  N   UNL     1      21.642   3.968  52.452  1.00  0.00    -0.192 NA
ATOM     14  C   UNL     1      26.200   2.842  50.922  1.00  0.00    +0.259 C 
ATOM     15  C   UNL     1      24.703   1.509  52.198  1.00  0.00    +0.058 A 
ATOM     16  O   UNL     1      26.663   3.593  50.088  1.00  0.00    -0.269 OA
ATOM     17  N   UNL     1      26.879   1.895  51.652  1.00  0.00    -0.306 N 
ATOM     18  C   UNL     1      23.758   0.634  52.680  1.00  0.00    +0.084 A 
ATOM     19  C   UNL     1      26.014   1.104  52.392  1.00  0.00    +0.145 A 
ATOM     20  N   UNL     1      24.123  -0.430  53.446  1.00  0.00    -0.236 NA
ATOM     21  N   UNL     1      26.435   0.055  53.096  1.00  0.00    -0.218 NA
ATOM     22  C   UNL     1      25.437  -0.658  53.626  1.00  0.00    +0.224 A 
ATOM     23  H   UNL     1      27.866   1.704  51.569  1.00  0.00    +0.171 HD
BRANCH  18  24
ATOM     24  C   UNL     1      22.336   0.649  52.322  1.00  0.00    +0.001 A 
ATOM     25  C   UNL     1      21.344   0.624  53.317  1.00  0.00    +0.010 A 
ATOM     26  C   UNL     1      21.924   0.635  50.976  1.00  0.00    +0.010 A 
ATOM     27  C   UNL     1      19.988   0.622  52.980  1.00  0.00    +0.001 A 
ATOM     28  C   UNL     1      20.568   0.634  50.639  1.00  0.00    +0.001 A 
ATOM     29  C   UNL     1      19.601   0.633  51.642  1.00  0.00    +0.000 A 
ENDBRANCH  18  24
ENDBRANCH   6  10
TORSDOF 3
ENDMDL
MODEL 2
REMARK VINA RESULT:    -7.834      3.726      6.509
REMARK INTER + INTRA:         -10.117
REMARK INTER:                  -8.959
REMARK INTRA:                  -1.158
REMARK UNBOUND:                -1.138
REMARK SMILES N#CC(C#N)=C(N)C(C#N)=C1C(=O)Nc2ncnc(-c3ccccc3)c21
REMARK SMILES IDX 1 1 2 2 3 3 4 4 5 5 6 6 7 7 8 10 9 11 11 12 10 13 12 14
REMARK SMILES IDX 26 15 13 16 14 17 19 18 15 19 18 20 16 21 17 22 20 24 21 25
REMARK SMILES IDX 25 26 22 27 24 28 23 29
REMARK H PARENT 7 8 7 9 14 23
ROOT
ATOM      1  N   UNL     1      14.420   1.904  49.863  1.00  0.00    -0.192 NA
ATOM      2  C   UNL     1      15.497   1.837  50.290  1.00  0.00    +0.113 C 
ATOM      3  C   UNL     1      16.836   1.742  50.761  1.00  0.00    +0.153 C 
ATOM      4  C   UNL     1      17.364   2.859  51.472  1.00  0.00    +0.113 C 
ATOM      5  N   UNL     1      17.857   3.740  52.044  1.00  0.00    -0.192 NA
ATOM      6  C   UNL     1      17.583   0.628  50.526  1.00  0.00    +0.079 C 
ENDROOT
BRANCH   6   7
ATOM      7  N   UNL     1      17.139  -0.497  49.836  1.00  0.00    -0.396 N 
ATOM      8  H   UNL     1      17.130  -0.429  48.817  1.00  0.00    +0.156 HD
ATOM      9  H   UNL     1      16.301  -0.956  50.195  1.00  0.00    +0.156 HD
ENDBRANCH   6   7
BRANCH   6  10
ATOM     10  C   UNL     1      18.971   0.536  51.041  1.00  0.00    +0.091 C 
ATOM     11  C   UNL     1      19.964   0.971  50.107  1.00  0.00    +0.102 C 
ATOM     12  C   UNL     1      19.295  -0.015  52.231  1.00  0.00    +0.073 C 
ATOM     13  N   UNL     1      20.709   1.274  49.272  1.00  0.00    -0.192 NA
ATOM     14  C   UNL     1      18.275  -0.774  53.050  1.00  0.00    +0.259 C 
ATOM     15  C   UNL     1      20.587  -0.242  52.901  1.00  0.00    +0.058 A 
ATOM     16  O   UNL     1      17.065  -0.722  52.971  1.00  0.00    -0.269 OA
ATOM     17  N   UNL     1      19.017  -1.539  53.919  1.00  0.00    -0.306 N 
ATOM     18  C   UNL     1      21.844   0.313  52.937  1.00  0.00    +0.084 A 
ATOM     19  C   UNL     1      20.365  -1.229  53.848  1.00  0.00    +0.145 A 
ATOM     20  N   UNL     1      22.818  -0.224  53.721  1.00  0.00    -0.236 NA
ATOM     21  N   UNL     1      21.264  -1.770  54.669  1.00  0.00    -0.218 NA
ATOM     22  C   UNL     1      22.484  -1.243  54.535  1.00  0.00    +0.224 A 
ATOM     23  H   UNL     1      18.628  -2.156  54.616  1.00  0.00    +0.171 HD
BRANCH  18  24
ATOM     24  C   UNL     1      22.228   1.573  52.291  1.00  0.00    +0.001 A 
ATOM     25  C   UNL     1      23.351   1.636  51.450  1.00  0.00    +0.010 A 
ATOM     26  C   UNL     1      21.518   2.763  52.537  1.00  0.00    +0.010 A 
ATOM     27  C   UNL     1      23.730   2.837  50.845  1.00  0.00    +0.001 A 
ATOM     28  C   UNL     1      21.895   3.964  51.932  1.00  0.00    +0.001 A 
ATOM     29  C   UNL     1      22.998   3.998  51.082  1.00  0.00    +0.000 A 
ENDBRANCH  18  24
ENDBRANCH   6  10
TORSDOF 3
ENDMDL
MODEL 3
REMARK VINA RESULT:    -7.455      1.873      4.200
REMARK INTER + INTRA:          -9.683
REMARK INTER:                  -8.763
REMARK INTRA:                  -0.920
REMARK UNBOUND:                -1.138
REMARK SMILES N#CC(C#N)=C(N)C(C#N)=C1C(=O)Nc2ncnc(-c3ccccc3)c21
REMARK SMILES IDX 1 1 2 2 3 3 4 4 5 5 6 6 7 7 8 10 9 11 11 12 10 13 12 14
REMARK SMILES IDX 26 15 13 16 14 17 19 18 15 19 18 20 16 21 17 22 20 24 21 25
REMARK SMILES IDX 25 26 22 27 24 28 23 29
REMARK H PARENT 7 8 7 9 14 23
ROOT
ATOM      1  N   UNL     1      22.962   7.669  49.131  1.00  0.00    -0.192 NA
ATOM      2  C   UNL     1      23.135   6.558  49.421  1.00  0.00    +0.113 C 
ATOM      3  C   UNL     1      23.315   5.205  49.820  1.00  0.00    +0.153 C 
ATOM      4  C   UNL     1      23.009   4.192  48.865  1.00  0.00    +0.113 C 
ATOM      5  N   UNL     1      22.764   3.320  48.139  1.00  0.00    -0.192 NA
ATOM      6  C   UNL     1      23.748   4.897  51.073  1.00  0.00    +0.079 C 
ENDROOT
BRANCH   6   7
ATOM      7  N   UNL     1      24.059   5.829  52.059  1.00  0.00    -0.396 N 
ATOM      8  H   UNL     1      24.926   5.673  52.574  1.00  0.00    +0.156 HD
ATOM      9  H   UNL     1      23.297   6.121  52.673  1.00  0.00    +0.156 HD
ENDBRANCH   6   7
BRANCH   6  10
ATOM     10  C   UNL     1      23.948   3.481  51.468  1.00  0.00    +0.091 C 
ATOM     11  C   UNL     1      25.159   2.907  50.968  1.00  0.00    +0.102 C 
ATOM     12  C   UNL     1      23.028   2.751  52.136  1.00  0.00    +0.073 C 
ATOM     13  N   UNL     1      26.122   2.496  50.468  1.00  0.00    -0.192 NA
ATOM     14  C   UNL     1      21.624   3.267  52.357  1.00  0.00    +0.259 C 
ATOM     15  C   UNL     1      23.007   1.347  52.580  1.00  0.00    +0.058 A 
ATOM     16  O   UNL     1      21.232   4.415  52.300  1.00  0.00    -0.269 OA
ATOM     17  N   UNL     1      20.877   2.150  52.647  1.00  0.00    -0.306 N 
ATOM     18  C   UNL     1      23.896   0.366  52.949  1.00  0.00    +0.084 A 
ATOM     19  C   UNL     1      21.675   1.026  52.790  1.00  0.00    +0.145 A 
ATOM     20  N   UNL     1      23.457  -0.872  53.303  1.00  0.00    -0.236 NA
ATOM     21  N   UNL     1      21.184  -0.152  53.171  1.00  0.00    -0.218 NA
ATOM     22  C   UNL     1      22.128  -1.073  53.383  1.00  0.00    +0.224 A 
ATOM     23  H   UNL     1      19.892   2.157  52.860  1.00  0.00    +0.171 HD
BRANCH  18  24
ATOM     24  C   UNL     1      25.336   0.565  53.145  1.00  0.00    +0.001 A 
ATOM     25  C   UNL     1      26.267  -0.335  52.597  1.00  0.00    +0.010 A 
ATOM     26  C   UNL     1      25.825   1.626  53.929  1.00  0.00    +0.010 A 
ATOM     27  C   UNL     1      27.639  -0.158  52.794  1.00  0.00    +0.001 A 
ATOM     28  C   UNL     1      27.196   1.803  54.126  1.00  0.00    +0.001 A 
ATOM     29  C   UNL     1      28.103   0.913  53.553  1.00  0.00    +0.000 A 
ENDBRANCH  18  24
ENDBRANCH   6  10
TORSDOF 3
ENDMDL
MODEL 4
REMARK VINA RESULT:    -7.431      2.257      5.105
REMARK INTER + INTRA:          -9.655
REMARK INTER:                  -8.865
REMARK INTRA:                  -0.790
REMARK UNBOUND:                -1.138
REMARK SMILES N#CC(C#N)=C(N)C(C#N)=C1C(=O)Nc2ncnc(-c3ccccc3)c21
REMARK SMILES IDX 1 1 2 2 3 3 4 4 5 5 6 6 7 7 8 10 9 11 11 12 10 13 12 14
REMARK SMILES IDX 26 15 13 16 14 17 19 18 15 19 18 20 16 21 17 22 20 24 21 25
REMARK SMILES IDX 25 26 22 27 24 28 23 29
REMARK H PARENT 7 8 7 9 14 23
ROOT
ATOM      1  N   UNL     1      17.570   3.164  51.729  1.00  0.00    -0.192 NA
ATOM      2  C   UNL     1      18.729   3.120  51.672  1.00  0.00    +0.113 C 
ATOM      3  C   UNL     1      20.144   3.043  51.550  1.00  0.00    +0.153 C 
ATOM      4  C   UNL     1      20.888   4.242  51.754  1.00  0.00    +0.113 C 
ATOM      5  N   UNL     1      21.549   5.185  51.894  1.00  0.00    -0.192 NA
ATOM      6  C   UNL     1      20.756   1.868  51.236  1.00  0.00    +0.079 C 
ENDROOT
BRANCH   6   7
ATOM      7  N   UNL     1      20.097   0.661  51.016  1.00  0.00    -0.396 N 
ATOM      8  H   UNL     1      20.329   0.169  50.153  1.00  0.00    +0.156 HD
ATOM      9  H   UNL     1      19.095   0.643  51.208  1.00  0.00    +0.156 HD
ENDBRANCH   6   7
BRANCH   6  10
ATOM     10  C   UNL     1      22.234   1.800  51.132  1.00  0.00    +0.091 C 
ATOM     11  C   UNL     1      22.744   2.206  49.858  1.00  0.00    +0.102 C 
ATOM     12  C   UNL     1      23.032   1.290  52.096  1.00  0.00    +0.073 C 
ATOM     13  N   UNL     1      23.071   2.483  48.781  1.00  0.00    -0.192 NA
ATOM     14  C   UNL     1      22.456   0.556  53.286  1.00  0.00    +0.259 C 
ATOM     15  C   UNL     1      24.489   1.092  52.177  1.00  0.00    +0.058 A 
ATOM     16  O   UNL     1      21.321   0.600  53.714  1.00  0.00    -0.269 OA
ATOM     17  N   UNL     1      23.504  -0.176  53.792  1.00  0.00    -0.306 N 
ATOM     18  C   UNL     1      25.638   1.653  51.673  1.00  0.00    +0.084 A 
ATOM     19  C   UNL     1      24.697   0.136  53.159  1.00  0.00    +0.145 A 
ATOM     20  N   UNL     1      26.858   1.147  51.998  1.00  0.00    -0.236 NA
ATOM     21  N   UNL     1      25.864  -0.372  53.549  1.00  0.00    -0.218 NA
ATOM     22  C   UNL     1      26.910   0.155  52.906  1.00  0.00    +0.224 A 
ATOM     23  H   UNL     1      23.451  -0.771  54.604  1.00  0.00    +0.171 HD
BRANCH  18  24
ATOM     24  C   UNL     1      25.697   2.892  50.889  1.00  0.00    +0.001 A 
ATOM     25  C   UNL     1      26.545   2.996  49.774  1.00  0.00    +0.010 A 
ATOM     26  C   UNL     1      24.951   4.025  51.262  1.00  0.00    +0.010 A 
ATOM     27  C   UNL     1      26.617   4.179  49.034  1.00  0.00    +0.001 A 
ATOM     28  C   UNL     1      25.022   5.208  50.522  1.00  0.00    +0.001 A 
ATOM     29  C   UNL     1      25.851   5.282  49.405  1.00  0.00    +0.000 A 
ENDBRANCH  18  24
ENDBRANCH   6  10
TORSDOF 3
ENDMDL
MODEL 5
REMARK VINA RESULT:    -7.285      1.511      1.841
REMARK INTER + INTRA:          -9.488
REMARK INTER:                  -8.329
REMARK INTRA:                  -1.159
REMARK UNBOUND:                -1.138
REMARK SMILES N#CC(C#N)=C(N)C(C#N)=C1C(=O)Nc2ncnc(-c3ccccc3)c21
REMARK SMILES IDX 1 1 2 2 3 3 4 4 5 5 6 6 7 7 8 10 9 11 11 12 10 13 12 14
REMARK SMILES IDX 26 15 13 16 14 17 19 18 15 19 18 20 16 21 17 22 20 24 21 25
REMARK SMILES IDX 25 26 22 27 24 28 23 29
REMARK H PARENT 7 8 7 9 14 23
ROOT
ATOM      1  N   UNL     1      21.344   8.308  48.147  1.00  0.00    -0.192 NA
ATOM      2  C   UNL     1      21.635   7.280  48.601  1.00  0.00    +0.113 C 
ATOM      3  C   UNL     1      21.966   6.035  49.206  1.00  0.00    +0.153 C 
ATOM      4  C   UNL     1      21.577   4.847  48.520  1.00  0.00    +0.113 C 
ATOM      5  N   UNL     1      21.276   3.844  48.020  1.00  0.00    -0.192 NA
ATOM      6  C   UNL     1      22.616   5.989  50.401  1.00  0.00    +0.079 C 
ENDROOT
BRANCH   6   7
ATOM      7  N   UNL     1      23.020   7.105  51.131  1.00  0.00    -0.396 N 
ATOM      8  H   UNL     1      23.798   7.641  50.745  1.00  0.00    +0.156 HD
ATOM      9  H   UNL     1      23.101   6.989  52.141  1.00  0.00    +0.156 HD
ENDBRANCH   6   7
BRANCH   6  10
ATOM     10  C   UNL     1      22.971   4.684  51.009  1.00  0.00    +0.091 C 
ATOM     11  C   UNL     1      22.001   4.196  51.940  1.00  0.00    +0.102 C 
ATOM     12  C   UNL     1      24.152   4.058  50.806  1.00  0.00    +0.073 C 
ATOM     13  N   UNL     1      21.203   3.905  52.730  1.00  0.00    -0.192 NA
ATOM     14  C   UNL     1      25.295   4.746  50.095  1.00  0.00    +0.259 C 
ATOM     15  C   UNL     1      24.713   2.803  51.335  1.00  0.00    +0.058 A 
ATOM     16  O   UNL     1      25.246   5.714  49.364  1.00  0.00    -0.269 OA
ATOM     17  N   UNL     1      26.414   4.031  50.450  1.00  0.00    -0.306 N 
ATOM     18  C   UNL     1      24.271   1.588  51.801  1.00  0.00    +0.084 A 
ATOM     19  C   UNL     1      26.086   2.890  51.165  1.00  0.00    +0.145 A 
ATOM     20  N   UNL     1      25.154   0.646  52.230  1.00  0.00    -0.236 NA
ATOM     21  N   UNL     1      26.998   1.990  51.527  1.00  0.00    -0.218 NA
ATOM     22  C   UNL     1      26.468   0.898  52.085  1.00  0.00    +0.224 A 
ATOM     23  H   UNL     1      27.349   4.230  50.128  1.00  0.00    +0.171 HD
BRANCH  18  24
ATOM     24  C   UNL     1      22.881   1.123  51.753  1.00  0.00    +0.001 A 
ATOM     25  C   UNL     1      22.240   0.654  52.912  1.00  0.00    +0.010 A 
ATOM     26  C   UNL     1      22.168   1.081  50.540  1.00  0.00    +0.010 A 
ATOM     27  C   UNL     1      20.920   0.195  52.869  1.00  0.00    +0.001 A 
ATOM     28  C   UNL     1      20.849   0.623  50.496  1.00  0.00    +0.001 A 
ATOM     29  C   UNL     1      20.225   0.185  51.662  1.00  0.00    +0.000 A 
ENDBRANCH  18  24
ENDBRANCH   6  10
TORSDOF 3
ENDMDL
MODEL 6
REMARK VINA RESULT:    -7.279      2.365      4.945
REMARK INTER + INTRA:          -9.480
REMARK INTER:                  -8.480
REMARK INTRA:                  -1.001
REMARK UNBOUND:                -1.138
REMARK SMILES N#CC(C#N)=C(N)C(C#N)=C1C(=O)Nc2ncnc(-c3ccccc3)c21
REMARK SMILES IDX 1 1 2 2 3 3 4 4 5 5 6 6 7 7 8 10 9 11 11 12 10 13 12 14
REMARK SMILES IDX 26 15 13 16 14 17 19 18 15 19 18 20 16 21 17 22 20 24 21 25
REMARK SMILES IDX 25 26 22 27 24 28 23 29
REMARK H PARENT 7 8 7 9 14 23
ROOT
ATOM      1  N   UNL     1      29.365   1.588  53.259  1.00  0.00    -0.192 NA
ATOM      2  C   UNL     1      28.257   1.751  52.955  1.00  0.00    +0.113 C 
ATOM      3  C   UNL     1      26.893   1.987  52.626  1.00  0.00    +0.153 C 
ATOM      4  C   UNL     1      26.600   2.400  51.294  1.00  0.00    +0.113 C 
ATOM      5  N   UNL     1      26.297   2.752  50.230  1.00  0.00    -0.192 NA
ATOM      6  C   UNL     1      25.912   1.836  53.558  1.00  0.00    +0.079 C 
ENDROOT
BRANCH   6   7
ATOM      7  N   UNL     1      26.122   1.444  54.878  1.00  0.00    -0.396 N 
ATOM      8  H   UNL     1      25.849   2.113  55.598  1.00  0.00    +0.156 HD
ATOM      9  H   UNL     1      27.017   1.000  55.089  1.00  0.00    +0.156 HD
ENDBRANCH   6   7
BRANCH   6  10
ATOM     10  C   UNL     1      24.493   2.067  53.195  1.00  0.00    +0.091 C 
ATOM     11  C   UNL     1      24.117   3.447  53.180  1.00  0.00    +0.102 C 
ATOM     12  C   UNL     1      23.595   1.074  53.009  1.00  0.00    +0.073 C 
ATOM     13  N   UNL     1      23.874   4.578  53.258  1.00  0.00    -0.192 NA
ATOM     14  C   UNL     1      23.923  -0.359  53.361  1.00  0.00    +0.259 C 
ATOM     15  C   UNL     1      22.157   1.084  52.692  1.00  0.00    +0.058 A 
ATOM     16  O   UNL     1      25.018  -0.860  53.512  1.00  0.00    -0.269 OA
ATOM     17  N   UNL     1      22.704  -0.985  53.468  1.00  0.00    -0.306 N 
ATOM     18  C   UNL     1      21.246   1.884  52.043  1.00  0.00    +0.084 A 
ATOM     19  C   UNL     1      21.667  -0.156  53.070  1.00  0.00    +0.145 A 
ATOM     20  N   UNL     1      19.935   1.527  51.971  1.00  0.00    -0.236 NA
ATOM     21  N   UNL     1      20.407  -0.579  52.992  1.00  0.00    -0.218 NA
ATOM     22  C   UNL     1      19.580   0.325  52.459  1.00  0.00    +0.224 A 
ATOM     23  H   UNL     1      22.577  -1.962  53.683  1.00  0.00    +0.171 HD
BRANCH  18  24
ATOM     24  C   UNL     1      21.582   3.077  51.258  1.00  0.00    +0.001 A 
ATOM     25  C   UNL     1      20.958   4.308  51.519  1.00  0.00    +0.010 A 
ATOM     26  C   UNL     1      22.494   3.011  50.188  1.00  0.00    +0.010 A 
ATOM     27  C   UNL     1      21.263   5.443  50.764  1.00  0.00    +0.001 A 
ATOM     28  C   UNL     1      22.800   4.146  49.434  1.00  0.00    +0.001 A 
ATOM     29  C   UNL     1      22.188   5.363  49.726  1.00  0.00    +0.000 A 
ENDBRANCH  18  24
ENDBRANCH   6  10
TORSDOF 3
ENDMDL
MODEL 7
REMARK VINA RESULT:    -6.956      2.303      5.664
REMARK INTER + INTRA:          -9.111
REMARK INTER:                  -7.999
REMARK INTRA:                  -1.112
REMARK UNBOUND:                -1.138
REMARK SMILES N#CC(C#N)=C(N)C(C#N)=C1C(=O)Nc2ncnc(-c3ccccc3)c21
REMARK SMILES IDX 1 1 2 2 3 3 4 4 5 5 6 6 7 7 8 10 9 11 11 12 10 13 12 14
REMARK SMILES IDX 26 15 13 16 14 17 19 18 15 19 18 20 16 21 17 22 20 24 21 25
REMARK SMILES IDX 25 26 22 27 24 28 23 29
REMARK H PARENT 7 8 7 9 14 23
ROOT
ATOM      1  N   UNL     1      25.070  -1.244  54.714  1.00  0.00    -0.192 NA
ATOM      2  C   UNL     1      24.319  -0.540  54.176  1.00  0.00    +0.113 C 
ATOM      3  C   UNL     1      23.414   0.299  53.469  1.00  0.00    +0.153 C 
ATOM      4  C   UNL     1      22.056   0.313  53.903  1.00  0.00    +0.113 C 
ATOM      5  N   UNL     1      20.934   0.358  54.197  1.00  0.00    -0.192 NA
ATOM      6  C   UNL     1      23.832   1.045  52.411  1.00  0.00    +0.079 C 
ENDROOT
BRANCH   6   7
ATOM      7  N   UNL     1      25.138   1.077  51.926  1.00  0.00    -0.396 N 
ATOM      8  H   UNL     1      25.861   1.354  52.591  1.00  0.00    +0.156 HD
ATOM      9  H   UNL     1      25.278   1.504  51.010  1.00  0.00    +0.156 HD
ENDBRANCH   6   7
BRANCH   6  10
ATOM     10  C   UNL     1      22.880   1.929  51.695  1.00  0.00    +0.091 C 
ATOM     11  C   UNL     1      22.145   1.270  50.661  1.00  0.00    +0.102 C 
ATOM     12  C   UNL     1      22.789   3.261  51.907  1.00  0.00    +0.073 C 
ATOM     13  N   UNL     1      21.641   0.682  49.797  1.00  0.00    -0.192 NA
ATOM     14  C   UNL     1      23.804   3.993  52.755  1.00  0.00    +0.259 C 
ATOM     15  C   UNL     1      21.959   4.309  51.289  1.00  0.00    +0.058 A 
ATOM     16  O   UNL     1      24.567   3.529  53.576  1.00  0.00    -0.269 OA
ATOM     17  N   UNL     1      23.674   5.316  52.399  1.00  0.00    -0.306 N 
ATOM     18  C   UNL     1      20.736   4.431  50.674  1.00  0.00    +0.084 A 
ATOM     19  C   UNL     1      22.594   5.513  51.553  1.00  0.00    +0.145 A 
ATOM     20  N   UNL     1      20.311   5.637  50.207  1.00  0.00    -0.236 NA
ATOM     21  N   UNL     1      22.211   6.725  51.158  1.00  0.00    -0.218 NA
ATOM     22  C   UNL     1      21.072   6.717  50.460  1.00  0.00    +0.224 A 
ATOM     23  H   UNL     1      24.207   6.073  52.798  1.00  0.00    +0.171 HD
BRANCH  18  24
ATOM     24  C   UNL     1      19.727   3.370  50.587  1.00  0.00    +0.001 A 
ATOM     25  C   UNL     1      19.152   3.025  49.353  1.00  0.00    +0.010 A 
ATOM     26  C   UNL     1      19.268   2.706  51.739  1.00  0.00    +0.010 A 
ATOM     27  C   UNL     1      18.179   2.026  49.267  1.00  0.00    +0.001 A 
ATOM     28  C   UNL     1      18.296   1.706  51.654  1.00  0.00    +0.001 A 
ATOM     29  C   UNL     1      17.757   1.363  50.416  1.00  0.00    +0.000 A 
ENDBRANCH  18  24
ENDBRANCH   6  10
TORSDOF 3
ENDMDL
MODEL 8
REMARK VINA RESULT:    -6.810      2.302      6.606
REMARK INTER + INTRA:          -8.943
REMARK INTER:                  -8.075
REMARK INTRA:                  -0.868
REMARK UNBOUND:                -1.138
REMARK SMILES N#CC(C#N)=C(N)C(C#N)=C1C(=O)Nc2ncnc(-c3ccccc3)c21
REMARK SMILES IDX 1 1 2 2 3 3 4 4 5 5 6 6 7 7 8 10 9 11 11 12 10 13 12 14
REMARK SMILES IDX 26 15 13 16 14 17 19 18 15 19 18 20 16 21 17 22 20 24 21 25
REMARK SMILES IDX 25 26 22 27 24 28 23 29
REMARK H PARENT 7 8 7 9 14 23
ROOT
ATOM      1  N   UNL     1      22.434  -1.160  55.208  1.00  0.00    -0.192 NA
ATOM      2  C   UNL     1      22.634  -0.461  54.303  1.00  0.00    +0.113 C 
ATOM      3  C   UNL     1      22.864   0.439  53.226  1.00  0.00    +0.153 C 
ATOM      4  C   UNL     1      24.153   0.421  52.617  1.00  0.00    +0.113 C 
ATOM      5  N   UNL     1      25.185   0.465  52.088  1.00  0.00    -0.192 NA
ATOM      6  C   UNL     1      21.890   1.294  52.809  1.00  0.00    +0.079 C 
ENDROOT
BRANCH   6   7
ATOM      7  N   UNL     1      20.613   1.374  53.358  1.00  0.00    -0.396 N 
ATOM      8  H   UNL     1      20.100   0.496  53.444  1.00  0.00    +0.156 HD
ATOM      9  H   UNL     1      20.016   2.133  53.028  1.00  0.00    +0.156 HD
ENDBRANCH   6   7
BRANCH   6  10
ATOM     10  C   UNL     1      22.138   2.214  51.672  1.00  0.00    +0.091 C 
ATOM     11  C   UNL     1      22.911   3.366  52.018  1.00  0.00    +0.102 C 
ATOM     12  C   UNL     1      21.592   2.055  50.446  1.00  0.00    +0.073 C 
ATOM     13  N   UNL     1      23.481   4.303  52.393  1.00  0.00    -0.192 NA
ATOM     14  C   UNL     1      20.512   1.028  50.192  1.00  0.00    +0.259 C 
ATOM     15  C   UNL     1      21.672   2.858  49.213  1.00  0.00    +0.058 A 
ATOM     16  O   UNL     1      20.235   0.054  50.861  1.00  0.00    -0.269 OA
ATOM     17  N   UNL     1      19.906   1.432  49.026  1.00  0.00    -0.306 N 
ATOM     18  C   UNL     1      22.545   3.720  48.595  1.00  0.00    +0.084 A 
ATOM     19  C   UNL     1      20.580   2.492  48.440  1.00  0.00    +0.145 A 
ATOM     20  N   UNL     1      22.229   4.292  47.402  1.00  0.00    -0.236 NA
ATOM     21  N   UNL     1      20.237   2.985  47.252  1.00  0.00    -0.218 NA
ATOM     22  C   UNL     1      21.089   3.908  46.799  1.00  0.00    +0.224 A 
ATOM     23  H   UNL     1      19.146   0.946  48.575  1.00  0.00    +0.171 HD
BRANCH  18  24
ATOM     24  C   UNL     1      23.915   3.995  49.043  1.00  0.00    +0.001 A 
ATOM     25  C   UNL     1      24.385   5.315  49.148  1.00  0.00    +0.010 A 
ATOM     26  C   UNL     1      24.813   2.949  49.326  1.00  0.00    +0.010 A 
ATOM     27  C   UNL     1      25.693   5.582  49.559  1.00  0.00    +0.001 A 
ATOM     28  C   UNL     1      26.121   3.216  49.737  1.00  0.00    +0.001 A 
ATOM     29  C   UNL     1      26.558   4.533  49.859  1.00  0.00    +0.000 A 
ENDBRANCH  18  24
ENDBRANCH   6  10
TORSDOF 3
ENDMDL
MODEL 9
REMARK VINA RESULT:    -6.680      2.685      4.998
REMARK INTER + INTRA:          -8.794
REMARK INTER:                  -7.837
REMARK INTRA:                  -0.958
REMARK UNBOUND:                -1.138
REMARK SMILES N#CC(C#N)=C(N)C(C#N)=C1C(=O)Nc2ncnc(-c3ccccc3)c21
REMARK SMILES IDX 1 1 2 2 3 3 4 4 5 5 6 6 7 7 8 10 9 11 11 12 10 13 12 14
REMARK SMILES IDX 26 15 13 16 14 17 19 18 15 19 18 20 16 21 17 22 20 24 21 25
REMARK SMILES IDX 25 26 22 27 24 28 23 29
REMARK H PARENT 7 8 7 9 14 23
ROOT
ATOM      1  N   UNL     1      17.205   4.417  48.939  1.00  0.00    -0.192 NA
ATOM      2  C   UNL     1      18.283   4.186  49.302  1.00  0.00    +0.113 C 
ATOM      3  C   UNL     1      19.615   3.882  49.698  1.00  0.00    +0.153 C 
ATOM      4  C   UNL     1      20.412   4.950  50.203  1.00  0.00    +0.113 C 
ATOM      5  N   UNL     1      21.116   5.779  50.608  1.00  0.00    -0.192 NA
ATOM      6  C   UNL     1      20.107   2.617  49.582  1.00  0.00    +0.079 C 
ENDROOT
BRANCH   6   7
ATOM      7  N   UNL     1      19.393   1.527  49.092  1.00  0.00    -0.396 N 
ATOM      8  H   UNL     1      19.030   1.613  48.142  1.00  0.00    +0.156 HD
ATOM      9  H   UNL     1      18.712   1.102  49.724  1.00  0.00    +0.156 HD
ENDBRANCH   6   7
BRANCH   6  10
ATOM     10  C   UNL     1      21.492   2.311  50.016  1.00  0.00    +0.091 C 
ATOM     11  C   UNL     1      22.482   2.565  49.015  1.00  0.00    +0.102 C 
ATOM     12  C   UNL     1      21.796   1.734  51.200  1.00  0.00    +0.073 C 
ATOM     13  N   UNL     1      23.213   2.730  48.131  1.00  0.00    -0.192 NA
ATOM     14  C   UNL     1      20.721   1.163  52.096  1.00  0.00    +0.259 C 
ATOM     15  C   UNL     1      23.075   1.313  51.798  1.00  0.00    +0.058 A 
ATOM     16  O   UNL     1      19.532   1.408  52.087  1.00  0.00    -0.269 OA
ATOM     17  N   UNL     1      21.383   0.302  52.940  1.00  0.00    -0.306 N 
ATOM     18  C   UNL     1      24.404   1.658  51.746  1.00  0.00    +0.084 A 
ATOM     19  C   UNL     1      22.757   0.389  52.782  1.00  0.00    +0.145 A 
ATOM     20  N   UNL     1      25.326   0.984  52.485  1.00  0.00    -0.236 NA
ATOM     21  N   UNL     1      23.607  -0.276  53.562  1.00  0.00    -0.218 NA
ATOM     22  C   UNL     1      24.885   0.045  53.343  1.00  0.00    +0.224 A 
ATOM     23  H   UNL     1      20.945  -0.233  53.673  1.00  0.00    +0.171 HD
BRANCH  18  24
ATOM     24  C   UNL     1      24.944   2.829  51.047  1.00  0.00    +0.001 A 
ATOM     25  C   UNL     1      24.354   4.095  51.204  1.00  0.00    +0.010 A 
ATOM     26  C   UNL     1      26.029   2.711  50.159  1.00  0.00    +0.010 A 
ATOM     27  C   UNL     1      24.855   5.210  50.528  1.00  0.00    +0.001 A 
ATOM     28  C   UNL     1      26.530   3.825  49.483  1.00  0.00    +0.001 A 
ATOM     29  C   UNL     1      25.946   5.076  49.673  1.00  0.00    +0.000 A 
ENDBRANCH  18  24
ENDBRANCH   6  10
TORSDOF 3
ENDMDL
