REMARK SMILES CCN(C(=O)c1ccc(F)c(Cl)c1)c1[nH]c(C)cc1C
REMARK SMILES IDX 4 1 5 2 3 3 2 4 1 5 14 6 15 7 19 8 16 9 18 10 20 12 17 13
REMARK SMILES IDX 6 14 7 15 13 16 8 17 11 18 9 19 12 20 10 21
REMARK H PARENT 15 11
ROOT
ATOM      1  C   UNL     1      -1.105   1.535   0.114  1.00  0.00    +0.259 C 
ATOM      2  O   UNL     1      -1.706   2.607   0.210  1.00  0.00    -0.269 OA
ENDROOT
BRANCH   1   3
ATOM      3  N   UNL     1       0.263   1.452  -0.198  1.00  0.00    -0.294 N 
BRANCH   3   4
ATOM      4  C   UNL     1       0.850   2.639  -0.833  1.00  0.00    +0.124 C 
ATOM      5  C   UNL     1       0.564   2.680  -2.327  1.00  0.00    +0.028 C 
ENDBRANCH   3   4
BRANCH   3   6
ATOM      6  C   UNL     1       1.052   0.352   0.165  1.00  0.00    +0.116 A 
ATOM      7  N   UNL     1       2.154   0.012  -0.592  1.00  0.00    -0.345 N 
ATOM      8  C   UNL     1       1.015  -0.533   1.237  1.00  0.00    -0.008 A 
ATOM      9  C   UNL     1       2.738  -1.131  -0.115  1.00  0.00    +0.014 A 
ATOM     10  C   UNL     1       2.057  -1.485   1.026  1.00  0.00    +0.028 A 
ATOM     11  H   UNL     1       2.443   0.497  -1.429  1.00  0.00    +0.168 HD
ATOM     12  C   UNL     1       0.149  -0.520   2.449  1.00  0.00    +0.048 C 
ATOM     13  C   UNL     1       3.905  -1.753  -0.786  1.00  0.00    +0.064 C 
ENDBRANCH   3   6
ENDBRANCH   1   3
BRANCH   1  14
ATOM     14  C   UNL     1      -1.946   0.307   0.187  1.00  0.00    +0.042 A 
ATOM     15  C   UNL     1      -1.755  -0.771  -0.691  1.00  0.00    +0.017 A 
ATOM     16  C   UNL     1      -3.014   0.286   1.096  1.00  0.00    +0.037 A 
ATOM     17  C   UNL     1      -2.594  -1.885  -0.621  1.00  0.00    +0.041 A 
ATOM     18  C   UNL     1      -3.849  -0.829   1.159  1.00  0.00    +0.077 A 
ATOM     19  C   UNL     1      -3.632  -1.910   0.306  1.00  0.00    +0.141 A 
ATOM     20 Cl   UNL     1      -5.140  -0.856   2.297  1.00  0.00    -0.081 Cl
ATOM     21  F   UNL     1      -4.424  -2.991   0.355  1.00  0.00    -0.205 F 
ENDBRANCH   1  14
TORSDOF 4
