MODEL 1
REMARK VINA RESULT:    -8.046      0.000      0.000
REMARK INTER + INTRA:         -10.679
REMARK INTER:                  -9.927
REMARK INTRA:                  -0.752
REMARK UNBOUND:                -0.752
REMARK SMILES Cc1cc(C)c(N(C(=O)c2ccccc2)c2ccccn2)[nH]1
REMARK SMILES IDX 7 1 6 2 2 3 3 4 22 5 4 6 1 7 5 9 8 10 9 11 10 12 11 13 15 14
REMARK SMILES IDX 12 15 14 16 13 17 16 18 17 19 21 20 18 21 20 22 19 23
REMARK H PARENT 22 8
ROOT
ATOM      1  N   UNL     1      25.271   1.222  52.638  1.00  0.00    -0.245 N 
ENDROOT
BRANCH   1   2
ATOM      2  C   UNL     1      24.000   0.624  52.735  1.00  0.00    +0.122 A 
ATOM      3  C   UNL     1      21.858   0.211  52.125  1.00  0.00    +0.014 A 
ATOM      4  C   UNL     1      22.125  -0.544  53.244  1.00  0.00    +0.028 A 
ATOM      5  N   UNL     1      23.000   0.907  51.828  1.00  0.00    -0.345 N 
ATOM      6  C   UNL     1      23.471  -0.289  53.642  1.00  0.00    -0.008 A 
ATOM      7  C   UNL     1      20.632   0.333  51.301  1.00  0.00    +0.064 C 
ATOM      8  H   UNL     1      23.109   1.511  51.025  1.00  0.00    +0.168 HD
ATOM      9  C   UNL     1      24.117  -0.881  54.847  1.00  0.00    +0.048 C 
ENDBRANCH   1   2
BRANCH   1  10
ATOM     10  C   UNL     1      26.238   1.010  53.637  1.00  0.00    +0.265 C 
ATOM     11  O   UNL     1      26.364   1.690  54.657  1.00  0.00    -0.268 OA
BRANCH  10  12
ATOM     12  C   UNL     1      27.232  -0.091  53.462  1.00  0.00    +0.040 A 
ATOM     13  C   UNL     1      28.542   0.111  53.917  1.00  0.00    +0.014 A 
ATOM     14  C   UNL     1      26.900  -1.288  52.813  1.00  0.00    +0.014 A 
ATOM     15  C   UNL     1      29.500  -0.892  53.760  1.00  0.00    +0.001 A 
ATOM     16  C   UNL     1      27.860  -2.288  52.661  1.00  0.00    +0.001 A 
ATOM     17  C   UNL     1      29.157  -2.091  53.138  1.00  0.00    +0.000 A 
ENDBRANCH  10  12
ENDBRANCH   1  10
BRANCH   1  18
ATOM     18  C   UNL     1      25.434   2.272  51.667  1.00  0.00    +0.141 A 
ATOM     19  C   UNL     1      26.451   2.201  50.711  1.00  0.00    +0.048 A 
ATOM     20  N   UNL     1      24.588   3.335  51.679  1.00  0.00    -0.238 NA
ATOM     21  C   UNL     1      26.609   3.226  49.777  1.00  0.00    +0.005 A 
ATOM     22  C   UNL     1      24.762   4.321  50.771  1.00  0.00    +0.113 A 
ATOM     23  C   UNL     1      25.750   4.313  49.807  1.00  0.00    +0.020 A 
ENDBRANCH   1  18
TORSDOF 4
ENDMDL
MODEL 2
REMARK VINA RESULT:    -7.781      1.356      1.680
REMARK INTER + INTRA:         -10.353
REMARK INTER:                  -9.498
REMARK INTRA:                  -0.854
REMARK UNBOUND:                -0.752
REMARK SMILES Cc1cc(C)c(N(C(=O)c2ccccc2)c2ccccn2)[nH]1
REMARK SMILES IDX 7 1 6 2 2 3 3 4 22 5 4 6 1 7 5 9 8 10 9 11 10 12 11 13 15 14
REMARK SMILES IDX 12 15 14 16 13 17 16 18 17 19 21 20 18 21 20 22 19 23
REMARK H PARENT 22 8
ROOT
ATOM      1  N   UNL     1      24.904   2.251  51.652  1.00  0.00    -0.245 N 
ENDROOT
BRANCH   1   2
ATOM      2  C   UNL     1      23.659   1.671  51.344  1.00  0.00    +0.122 A 
ATOM      3  C   UNL     1      21.841   1.237  50.062  1.00  0.00    +0.014 A 
ATOM      4  C   UNL     1      21.688   0.555  51.248  1.00  0.00    +0.028 A 
ATOM      5  N   UNL     1      23.037   1.904  50.134  1.00  0.00    -0.345 N 
ATOM      6  C   UNL     1      22.824   0.824  52.066  1.00  0.00    -0.008 A 
ATOM      7  C   UNL     1      20.973   1.316  48.863  1.00  0.00    +0.064 C 
ATOM      8  H   UNL     1      23.431   2.453  49.383  1.00  0.00    +0.168 HD
ATOM      9  C   UNL     1      23.002   0.307  53.452  1.00  0.00    +0.048 C 
ENDBRANCH   1   2
BRANCH   1  10
ATOM     10  C   UNL     1      25.498   2.039  52.909  1.00  0.00    +0.265 C 
ATOM     11  O   UNL     1      25.226   2.661  53.938  1.00  0.00    -0.268 OA
BRANCH  10  12
ATOM     12  C   UNL     1      26.576   1.013  53.037  1.00  0.00    +0.040 A 
ATOM     13  C   UNL     1      27.842   1.422  53.476  1.00  0.00    +0.014 A 
ATOM     14  C   UNL     1      26.365  -0.326  52.682  1.00  0.00    +0.014 A 
ATOM     15  C   UNL     1      28.876   0.493  53.597  1.00  0.00    +0.001 A 
ATOM     16  C   UNL     1      27.401  -1.252  52.807  1.00  0.00    +0.001 A 
ATOM     17  C   UNL     1      28.654  -0.843  53.268  1.00  0.00    +0.000 A 
ENDBRANCH  10  12
ENDBRANCH   1  10
BRANCH   1  18
ATOM     18  C   UNL     1      25.385   3.287  50.777  1.00  0.00    +0.141 A 
ATOM     19  C   UNL     1      26.520   3.077  49.989  1.00  0.00    +0.048 A 
ATOM     20  N   UNL     1      24.725   4.473  50.714  1.00  0.00    -0.238 NA
ATOM     21  C   UNL     1      26.986   4.089  49.147  1.00  0.00    +0.005 A 
ATOM     22  C   UNL     1      25.197   5.442  49.899  1.00  0.00    +0.113 A 
ATOM     23  C   UNL     1      26.315   5.300  49.102  1.00  0.00    +0.020 A 
ENDBRANCH   1  18
TORSDOF 4
ENDMDL
MODEL 3
REMARK VINA RESULT:    -7.585      1.524      5.438
REMARK INTER + INTRA:         -10.111
REMARK INTER:                  -9.119
REMARK INTRA:                  -0.992
REMARK UNBOUND:                -0.752
REMARK SMILES Cc1cc(C)c(N(C(=O)c2ccccc2)c2ccccn2)[nH]1
REMARK SMILES IDX 7 1 6 2 2 3 3 4 22 5 4 6 1 7 5 9 8 10 9 11 10 12 11 13 15 14
REMARK SMILES IDX 12 15 14 16 13 17 16 18 17 19 21 20 18 21 20 22 19 23
REMARK H PARENT 22 8
ROOT
ATOM      1  N   UNL     1      25.313   2.018  52.145  1.00  0.00    -0.245 N 
ENDROOT
BRANCH   1   2
ATOM      2  C   UNL     1      25.452   2.770  50.962  1.00  0.00    +0.122 A 
ATOM      3  C   UNL     1      26.528   4.081  49.461  1.00  0.00    +0.014 A 
ATOM      4  C   UNL     1      25.258   3.857  48.983  1.00  0.00    +0.028 A 
ATOM      5  N   UNL     1      26.632   3.416  50.655  1.00  0.00    -0.345 N 
ATOM      6  C   UNL     1      24.566   3.036  49.922  1.00  0.00    -0.008 A 
ATOM      7  C   UNL     1      27.660   4.855  48.898  1.00  0.00    +0.064 C 
ATOM      8  H   UNL     1      27.474   3.366  51.211  1.00  0.00    +0.168 HD
ATOM      9  C   UNL     1      23.144   2.618  49.785  1.00  0.00    +0.048 C 
ENDBRANCH   1   2
BRANCH   1  10
ATOM     10  C   UNL     1      24.219   2.233  53.002  1.00  0.00    +0.265 C 
ATOM     11  O   UNL     1      24.016   3.263  53.648  1.00  0.00    -0.268 OA
BRANCH  10  12
ATOM     12  C   UNL     1      23.228   1.134  53.202  1.00  0.00    +0.040 A 
ATOM     13  C   UNL     1      21.912   1.330  52.760  1.00  0.00    +0.014 A 
ATOM     14  C   UNL     1      23.567  -0.055  53.861  1.00  0.00    +0.014 A 
ATOM     15  C   UNL     1      20.956   0.329  52.940  1.00  0.00    +0.001 A 
ATOM     16  C   UNL     1      22.609  -1.053  54.037  1.00  0.00    +0.001 A 
ATOM     17  C   UNL     1      21.306  -0.862  53.573  1.00  0.00    +0.000 A 
ENDBRANCH  10  12
ENDBRANCH   1  10
BRANCH   1  18
ATOM     18  C   UNL     1      26.456   1.262  52.584  1.00  0.00    +0.141 A 
ATOM     19  C   UNL     1      26.552  -0.103  52.303  1.00  0.00    +0.048 A 
ATOM     20  N   UNL     1      27.448   1.884  53.272  1.00  0.00    -0.238 NA
ATOM     21  C   UNL     1      27.659  -0.833  52.740  1.00  0.00    +0.005 A 
ATOM     22  C   UNL     1      28.508   1.159  53.692  1.00  0.00    +0.113 A 
ATOM     23  C   UNL     1      28.659  -0.192  53.453  1.00  0.00    +0.020 A 
ENDBRANCH   1  18
TORSDOF 4
ENDMDL
MODEL 4
REMARK VINA RESULT:    -7.559      1.508      5.815
REMARK INTER + INTRA:         -10.078
REMARK INTER:                  -9.123
REMARK INTRA:                  -0.955
REMARK UNBOUND:                -0.752
REMARK SMILES Cc1cc(C)c(N(C(=O)c2ccccc2)c2ccccn2)[nH]1
REMARK SMILES IDX 7 1 6 2 2 3 3 4 22 5 4 6 1 7 5 9 8 10 9 11 10 12 11 13 15 14
REMARK SMILES IDX 12 15 14 16 13 17 16 18 17 19 21 20 18 21 20 22 19 23
REMARK H PARENT 22 8
ROOT
ATOM      1  N   UNL     1      25.562   0.721  53.300  1.00  0.00    -0.245 N 
ENDROOT
BRANCH   1   2
ATOM      2  C   UNL     1      26.850   0.154  53.348  1.00  0.00    +0.122 A 
ATOM      3  C   UNL     1      28.376  -1.519  53.276  1.00  0.00    +0.014 A 
ATOM      4  C   UNL     1      29.058  -0.343  53.489  1.00  0.00    +0.028 A 
ATOM      5  N   UNL     1      27.045  -1.203  53.190  1.00  0.00    -0.345 N 
ATOM      6  C   UNL     1      28.107   0.719  53.541  1.00  0.00    -0.008 A 
ATOM      7  C   UNL     1      28.858  -2.914  53.137  1.00  0.00    +0.064 C 
ATOM      8  H   UNL     1      26.311  -1.868  52.990  1.00  0.00    +0.168 HD
ATOM      9  C   UNL     1      28.453   2.142  53.810  1.00  0.00    +0.048 C 
ENDBRANCH   1   2
BRANCH   1  10
ATOM     10  C   UNL     1      25.398   2.100  53.078  1.00  0.00    +0.265 C 
ATOM     11  O   UNL     1      25.254   2.949  53.960  1.00  0.00    -0.268 OA
BRANCH  10  12
ATOM     12  C   UNL     1      25.350   2.607  51.674  1.00  0.00    +0.040 A 
ATOM     13  C   UNL     1      24.098   2.786  51.069  1.00  0.00    +0.014 A 
ATOM     14  C   UNL     1      26.517   2.857  50.940  1.00  0.00    +0.014 A 
ATOM     15  C   UNL     1      24.015   3.248  49.755  1.00  0.00    +0.001 A 
ATOM     16  C   UNL     1      26.429   3.321  49.627  1.00  0.00    +0.001 A 
ATOM     17  C   UNL     1      25.179   3.520  49.037  1.00  0.00    +0.000 A 
ENDBRANCH  10  12
ENDBRANCH   1  10
BRANCH   1  18
ATOM     18  C   UNL     1      24.469  -0.083  53.778  1.00  0.00    +0.141 A 
ATOM     19  C   UNL     1      23.264  -0.131  53.071  1.00  0.00    +0.048 A 
ATOM     20  N   UNL     1      24.614  -0.803  54.921  1.00  0.00    -0.238 NA
ATOM     21  C   UNL     1      22.204  -0.907  53.544  1.00  0.00    +0.005 A 
ATOM     22  C   UNL     1      23.574  -1.542  55.366  1.00  0.00    +0.113 A 
ATOM     23  C   UNL     1      22.357  -1.626  54.718  1.00  0.00    +0.020 A 
ENDBRANCH   1  18
TORSDOF 4
ENDMDL
MODEL 5
REMARK VINA RESULT:    -7.551      1.149      2.066
REMARK INTER + INTRA:         -10.069
REMARK INTER:                  -9.412
REMARK INTRA:                  -0.658
REMARK UNBOUND:                -0.752
REMARK SMILES Cc1cc(C)c(N(C(=O)c2ccccc2)c2ccccn2)[nH]1
REMARK SMILES IDX 7 1 6 2 2 3 3 4 22 5 4 6 1 7 5 9 8 10 9 11 10 12 11 13 15 14
REMARK SMILES IDX 12 15 14 16 13 17 16 18 17 19 21 20 18 21 20 22 19 23
REMARK H PARENT 22 8
ROOT
ATOM      1  N   UNL     1      24.971   1.933  52.252  1.00  0.00    -0.245 N 
ENDROOT
BRANCH   1   2
ATOM      2  C   UNL     1      23.649   1.458  52.344  1.00  0.00    +0.122 A 
ATOM      3  C   UNL     1      21.836   0.580  53.381  1.00  0.00    +0.014 A 
ATOM      4  C   UNL     1      21.499   0.797  52.065  1.00  0.00    +0.028 A 
ATOM      5  N   UNL     1      23.135   0.987  53.535  1.00  0.00    -0.345 N 
ATOM      6  C   UNL     1      22.634   1.346  51.399  1.00  0.00    -0.008 A 
ATOM      7  C   UNL     1      21.048   0.034  54.512  1.00  0.00    +0.064 C 
ATOM      8  H   UNL     1      23.634   0.986  54.414  1.00  0.00    +0.168 HD
ATOM      9  C   UNL     1      22.681   1.668  49.945  1.00  0.00    +0.048 C 
ENDBRANCH   1   2
BRANCH   1  10
ATOM     10  C   UNL     1      25.904   1.646  53.264  1.00  0.00    +0.265 C 
ATOM     11  O   UNL     1      26.117   2.349  54.254  1.00  0.00    -0.268 OA
BRANCH  10  12
ATOM     12  C   UNL     1      26.751   0.421  53.143  1.00  0.00    +0.040 A 
ATOM     13  C   UNL     1      26.177  -0.741  52.610  1.00  0.00    +0.014 A 
ATOM     14  C   UNL     1      28.077   0.394  53.594  1.00  0.00    +0.014 A 
ATOM     15  C   UNL     1      26.935  -1.906  52.492  1.00  0.00    +0.001 A 
ATOM     16  C   UNL     1      28.832  -0.773  53.472  1.00  0.00    +0.001 A 
ATOM     17  C   UNL     1      28.262  -1.920  52.918  1.00  0.00    +0.000 A 
ENDBRANCH  10  12
ENDBRANCH   1  10
BRANCH   1  18
ATOM     18  C   UNL     1      25.241   2.948  51.268  1.00  0.00    +0.141 A 
ATOM     19  C   UNL     1      26.220   2.744  50.291  1.00  0.00    +0.048 A 
ATOM     20  N   UNL     1      24.534   4.107  51.288  1.00  0.00    -0.238 NA
ATOM     21  C   UNL     1      26.483   3.736  49.345  1.00  0.00    +0.005 A 
ATOM     22  C   UNL     1      24.808   5.058  50.368  1.00  0.00    +0.113 A 
ATOM     23  C   UNL     1      25.766   4.921  49.383  1.00  0.00    +0.020 A 
ENDBRANCH   1  18
TORSDOF 4
ENDMDL
MODEL 6
REMARK VINA RESULT:    -7.524      2.165      5.201
REMARK INTER + INTRA:         -10.035
REMARK INTER:                  -8.873
REMARK INTRA:                  -1.162
REMARK UNBOUND:                -0.752
REMARK SMILES Cc1cc(C)c(N(C(=O)c2ccccc2)c2ccccn2)[nH]1
REMARK SMILES IDX 7 1 6 2 2 3 3 4 22 5 4 6 1 7 5 9 8 10 9 11 10 12 11 13 15 14
REMARK SMILES IDX 12 15 14 16 13 17 16 18 17 19 21 20 18 21 20 22 19 23
REMARK H PARENT 22 8
ROOT
ATOM      1  N   UNL     1      24.123   3.387  50.960  1.00  0.00    -0.245 N 
ENDROOT
BRANCH   1   2
ATOM      2  C   UNL     1      24.921   4.399  50.392  1.00  0.00    +0.122 A 
ATOM      3  C   UNL     1      26.671   5.241  49.226  1.00  0.00    +0.014 A 
ATOM      4  C   UNL     1      25.905   6.302  49.651  1.00  0.00    +0.028 A 
ATOM      5  N   UNL     1      26.063   4.099  49.678  1.00  0.00    -0.345 N 
ATOM      6  C   UNL     1      24.801   5.786  50.392  1.00  0.00    -0.008 A 
ATOM      7  C   UNL     1      27.918   5.198  48.427  1.00  0.00    +0.064 C 
ATOM      8  H   UNL     1      26.382   3.162  49.475  1.00  0.00    +0.168 HD
ATOM      9  C   UNL     1      23.772   6.628  51.062  1.00  0.00    +0.048 C 
ENDBRANCH   1   2
BRANCH   1  10
ATOM     10  C   UNL     1      24.391   2.911  52.256  1.00  0.00    +0.265 C 
ATOM     11  O   UNL     1      24.182   3.535  53.299  1.00  0.00    -0.268 OA
BRANCH  10  12
ATOM     12  C   UNL     1      25.015   1.564  52.419  1.00  0.00    +0.040 A 
ATOM     13  C   UNL     1      24.366   0.618  53.223  1.00  0.00    +0.014 A 
ATOM     14  C   UNL     1      26.249   1.247  51.834  1.00  0.00    +0.014 A 
ATOM     15  C   UNL     1      24.926  -0.647  53.407  1.00  0.00    +0.001 A 
ATOM     16  C   UNL     1      26.803  -0.019  52.019  1.00  0.00    +0.001 A 
ATOM     17  C   UNL     1      26.140  -0.966  52.801  1.00  0.00    +0.000 A 
ENDBRANCH  10  12
ENDBRANCH   1  10
BRANCH   1  18
ATOM     18  C   UNL     1      23.244   2.666  50.078  1.00  0.00    +0.141 A 
ATOM     19  C   UNL     1      22.284   1.792  50.595  1.00  0.00    +0.048 A 
ATOM     20  N   UNL     1      23.348   2.843  48.735  1.00  0.00    -0.238 NA
ATOM     21  C   UNL     1      21.440   1.089  49.733  1.00  0.00    +0.005 A 
ATOM     22  C   UNL     1      22.527   2.147  47.918  1.00  0.00    +0.113 A 
ATOM     23  C   UNL     1      21.564   1.265  48.365  1.00  0.00    +0.020 A 
ENDBRANCH   1  18
TORSDOF 4
ENDMDL
MODEL 7
REMARK VINA RESULT:    -7.436      2.226      4.886
REMARK INTER + INTRA:          -9.926
REMARK INTER:                  -8.530
REMARK INTRA:                  -1.397
REMARK UNBOUND:                -0.752
REMARK SMILES Cc1cc(C)c(N(C(=O)c2ccccc2)c2ccccn2)[nH]1
REMARK SMILES IDX 7 1 6 2 2 3 3 4 22 5 4 6 1 7 5 9 8 10 9 11 10 12 11 13 15 14
REMARK SMILES IDX 12 15 14 16 13 17 16 18 17 19 21 20 18 21 20 22 19 23
REMARK H PARENT 22 8
ROOT
ATOM      1  N   UNL     1      23.233   2.232  51.643  1.00  0.00    -0.245 N 
ENDROOT
BRANCH   1   2
ATOM      2  C   UNL     1      23.298   1.117  52.501  1.00  0.00    +0.122 A 
ATOM      3  C   UNL     1      22.485  -0.439  53.934  1.00  0.00    +0.014 A 
ATOM      4  C   UNL     1      23.830  -0.681  53.774  1.00  0.00    +0.028 A 
ATOM      5  N   UNL     1      22.178   0.648  53.157  1.00  0.00    -0.345 N 
ATOM      6  C   UNL     1      24.356   0.295  52.877  1.00  0.00    -0.008 A 
ATOM      7  C   UNL     1      21.458  -1.137  54.742  1.00  0.00    +0.064 C 
ATOM      8  H   UNL     1      21.247   1.025  53.043  1.00  0.00    +0.168 HD
ATOM      9  C   UNL     1      25.791   0.397  52.494  1.00  0.00    +0.048 C 
ENDBRANCH   1   2
BRANCH   1  10
ATOM     10  C   UNL     1      23.952   3.403  51.939  1.00  0.00    +0.265 C 
ATOM     11  O   UNL     1      23.895   4.021  53.004  1.00  0.00    -0.268 OA
BRANCH  10  12
ATOM     12  C   UNL     1      24.835   3.996  50.890  1.00  0.00    +0.040 A 
ATOM     13  C   UNL     1      25.880   3.218  50.375  1.00  0.00    +0.014 A 
ATOM     14  C   UNL     1      24.674   5.318  50.453  1.00  0.00    +0.014 A 
ATOM     15  C   UNL     1      26.731   3.744  49.402  1.00  0.00    +0.001 A 
ATOM     16  C   UNL     1      25.525   5.839  49.478  1.00  0.00    +0.001 A 
ATOM     17  C   UNL     1      26.550   5.051  48.951  1.00  0.00    +0.000 A 
ENDBRANCH  10  12
ENDBRANCH   1  10
BRANCH   1  18
ATOM     18  C   UNL     1      22.195   2.237  50.646  1.00  0.00    +0.141 A 
ATOM     19  C   UNL     1      22.431   1.705  49.376  1.00  0.00    +0.048 A 
ATOM     20  N   UNL     1      20.977   2.760  50.948  1.00  0.00    -0.238 NA
ATOM     21  C   UNL     1      21.422   1.721  48.410  1.00  0.00    +0.005 A 
ATOM     22  C   UNL     1      20.017   2.772  49.997  1.00  0.00    +0.113 A 
ATOM     23  C   UNL     1      20.189   2.269  48.723  1.00  0.00    +0.020 A 
ENDBRANCH   1  18
TORSDOF 4
ENDMDL
MODEL 8
REMARK VINA RESULT:    -7.418      1.467      4.687
REMARK INTER + INTRA:          -9.904
REMARK INTER:                  -9.116
REMARK INTRA:                  -0.788
REMARK UNBOUND:                -0.752
REMARK SMILES Cc1cc(C)c(N(C(=O)c2ccccc2)c2ccccn2)[nH]1
REMARK SMILES IDX 7 1 6 2 2 3 3 4 22 5 4 6 1 7 5 9 8 10 9 11 10 12 11 13 15 14
REMARK SMILES IDX 12 15 14 16 13 17 16 18 17 19 21 20 18 21 20 22 19 23
REMARK H PARENT 22 8
ROOT
ATOM      1  N   UNL     1      24.514   1.655  53.089  1.00  0.00    -0.245 N 
ENDROOT
BRANCH   1   2
ATOM      2  C   UNL     1      23.349   0.894  52.871  1.00  0.00    +0.122 A 
ATOM      3  C   UNL     1      21.724  -0.594  53.398  1.00  0.00    +0.014 A 
ATOM      4  C   UNL     1      21.468  -0.130  52.128  1.00  0.00    +0.028 A 
ATOM      5  N   UNL     1      22.860   0.036  53.835  1.00  0.00    -0.345 N 
ATOM      6  C   UNL     1      22.488   0.805  51.782  1.00  0.00    -0.008 A 
ATOM      7  C   UNL     1      20.996  -1.568  54.245  1.00  0.00    +0.064 C 
ATOM      8  H   UNL     1      23.258  -0.078  54.756  1.00  0.00    +0.168 HD
ATOM      9  C   UNL     1      22.588   1.487  50.461  1.00  0.00    +0.048 C 
ENDBRANCH   1   2
BRANCH   1  10
ATOM     10  C   UNL     1      24.520   3.037  52.833  1.00  0.00    +0.265 C 
ATOM     11  O   UNL     1      24.080   3.902  53.593  1.00  0.00    -0.268 OA
BRANCH  10  12
ATOM     12  C   UNL     1      25.058   3.531  51.530  1.00  0.00    +0.040 A 
ATOM     13  C   UNL     1      24.442   4.635  50.925  1.00  0.00    +0.014 A 
ATOM     14  C   UNL     1      26.122   2.890  50.881  1.00  0.00    +0.014 A 
ATOM     15  C   UNL     1      24.911   5.117  49.702  1.00  0.00    +0.001 A 
ATOM     16  C   UNL     1      26.589   3.376  49.659  1.00  0.00    +0.001 A 
ATOM     17  C   UNL     1      25.986   4.491  49.073  1.00  0.00    +0.000 A 
ENDBRANCH  10  12
ENDBRANCH   1  10
BRANCH   1  18
ATOM     18  C   UNL     1      25.745   0.936  53.282  1.00  0.00    +0.141 A 
ATOM     19  C   UNL     1      26.040  -0.186  52.504  1.00  0.00    +0.048 A 
ATOM     20  N   UNL     1      26.628   1.358  54.225  1.00  0.00    -0.238 NA
ATOM     21  C   UNL     1      27.233  -0.884  52.702  1.00  0.00    +0.005 A 
ATOM     22  C   UNL     1      27.773   0.665  54.406  1.00  0.00    +0.113 A 
ATOM     23  C   UNL     1      28.119  -0.455  53.676  1.00  0.00    +0.020 A 
ENDBRANCH   1  18
TORSDOF 4
ENDMDL
MODEL 9
REMARK VINA RESULT:    -7.165      2.202      6.284
REMARK INTER + INTRA:          -9.592
REMARK INTER:                  -8.571
REMARK INTRA:                  -1.021
REMARK UNBOUND:                -0.752
REMARK SMILES Cc1cc(C)c(N(C(=O)c2ccccc2)c2ccccn2)[nH]1
REMARK SMILES IDX 7 1 6 2 2 3 3 4 22 5 4 6 1 7 5 9 8 10 9 11 10 12 11 13 15 14
REMARK SMILES IDX 12 15 14 16 13 17 16 18 17 19 21 20 18 21 20 22 19 23
REMARK H PARENT 22 8
ROOT
ATOM      1  N   UNL     1      23.886   1.618  52.450  1.00  0.00    -0.245 N 
ENDROOT
BRANCH   1   2
ATOM      2  C   UNL     1      25.257   1.435  52.717  1.00  0.00    +0.122 A 
ATOM      3  C   UNL     1      27.059   0.794  53.931  1.00  0.00    +0.014 A 
ATOM      4  C   UNL     1      27.521   1.320  52.747  1.00  0.00    +0.028 A 
ATOM      5  N   UNL     1      25.690   0.867  53.897  1.00  0.00    -0.345 N 
ATOM      6  C   UNL     1      26.395   1.733  51.974  1.00  0.00    -0.008 A 
ATOM      7  C   UNL     1      27.782   0.220  55.091  1.00  0.00    +0.064 C 
ATOM      8  H   UNL     1      25.081   0.509  54.619  1.00  0.00    +0.168 HD
ATOM      9  C   UNL     1      26.488   2.402  50.647  1.00  0.00    +0.048 C 
ENDBRANCH   1   2
BRANCH   1  10
ATOM     10  C   UNL     1      23.430   2.800  51.841  1.00  0.00    +0.265 C 
ATOM     11  O   UNL     1      23.315   3.891  52.405  1.00  0.00    -0.268 OA
BRANCH  10  12
ATOM     12  C   UNL     1      23.004   2.761  50.410  1.00  0.00    +0.040 A 
ATOM     13  C   UNL     1      23.213   3.898  49.617  1.00  0.00    +0.014 A 
ATOM     14  C   UNL     1      22.360   1.643  49.863  1.00  0.00    +0.014 A 
ATOM     15  C   UNL     1      22.818   3.900  48.279  1.00  0.00    +0.001 A 
ATOM     16  C   UNL     1      21.969   1.650  48.524  1.00  0.00    +0.001 A 
ATOM     17  C   UNL     1      22.201   2.776  47.732  1.00  0.00    +0.000 A 
ENDBRANCH  10  12
ENDBRANCH   1  10
BRANCH   1  18
ATOM     18  C   UNL     1      22.964   0.713  53.083  1.00  0.00    +0.141 A 
ATOM     19  C   UNL     1      21.733   1.173  53.556  1.00  0.00    +0.048 A 
ATOM     20  N   UNL     1      23.294  -0.599  53.214  1.00  0.00    -0.238 NA
ATOM     21  C   UNL     1      20.845   0.291  54.177  1.00  0.00    +0.005 A 
ATOM     22  C   UNL     1      22.425  -1.435  53.824  1.00  0.00    +0.113 A 
ATOM     23  C   UNL     1      21.197  -1.041  54.319  1.00  0.00    +0.020 A 
ENDBRANCH   1  18
TORSDOF 4
ENDMDL
