MODEL 1
REMARK VINA RESULT:    -8.427      0.000      0.000
REMARK INTER + INTRA:         -10.706
REMARK INTER:                  -9.658
REMARK INTRA:                  -1.048
REMARK UNBOUND:                -1.048
REMARK SMILES Cc1cccc(-c2ncnc3c2C(=C(C#N)C(N)=C(C#N)C#N)C(=O)N3)c1
REMARK SMILES IDX 7 1 8 2 9 3 10 4 11 5 12 6 13 7 14 8 15 9 16 10 24 11 25 12
REMARK SMILES IDX 26 13 6 15 2 16 3 17 27 18 4 19 5 20 1 21 17 22 19 23 20 24
REMARK SMILES IDX 22 25 21 26 23 27 18 28
REMARK H PARENT 26 14 18 29 18 30
ROOT
ATOM      1  C   UNL     1      22.048   0.322  53.064  1.00  0.00    +0.084 A 
ATOM      2  N   UNL     1      20.764  -0.127  53.114  1.00  0.00    -0.236 NA
ATOM      3  C   UNL     1      20.468  -1.103  53.990  1.00  0.00    +0.224 A 
ATOM      4  N   UNL     1      21.320  -1.662  54.853  1.00  0.00    -0.218 NA
ATOM      5  C   UNL     1      22.565  -1.207  54.729  1.00  0.00    +0.145 A 
ATOM      6  C   UNL     1      23.032  -0.269  53.820  1.00  0.00    +0.058 A 
ATOM      7  C   UNL     1      24.480  -0.139  54.069  1.00  0.00    +0.073 C 
ATOM      8  C   UNL     1      25.500   0.361  53.337  1.00  0.00    +0.091 C 
ATOM      9  C   UNL     1      25.328   0.838  51.999  1.00  0.00    +0.102 C 
ATOM     10  N   UNL     1      25.268   1.166  50.888  1.00  0.00    -0.192 NA
ATOM     11  C   UNL     1      24.748  -0.924  55.333  1.00  0.00    +0.259 C 
ATOM     12  O   UNL     1      25.786  -0.995  55.961  1.00  0.00    -0.269 OA
ATOM     13  N   UNL     1      23.572  -1.577  55.606  1.00  0.00    -0.306 N 
ATOM     14  H   UNL     1      23.423  -2.203  56.383  1.00  0.00    +0.171 HD
ENDROOT
BRANCH   1  15
ATOM     15  C   UNL     1      22.211   1.539  52.263  1.00  0.00    +0.001 A 
ATOM     16  C   UNL     1      22.812   3.908  52.086  1.00  0.00    -0.050 A 
ATOM     17  C   UNL     1      22.474   3.886  50.730  1.00  0.00    +0.003 A 
ATOM     18  C   UNL     1      22.683   2.734  52.841  1.00  0.00    +0.013 A 
ATOM     19  C   UNL     1      21.980   2.720  50.147  1.00  0.00    +0.001 A 
ATOM     20  C   UNL     1      21.842   1.560  50.909  1.00  0.00    +0.010 A 
ATOM     21  C   UNL     1      23.360   5.157  52.710  1.00  0.00    +0.044 C 
ENDBRANCH   1  15
BRANCH   8  22
ATOM     22  C   UNL     1      26.913   0.355  53.785  1.00  0.00    +0.079 C 
ATOM     23  C   UNL     1      27.755  -0.656  53.434  1.00  0.00    +0.153 C 
ATOM     24  C   UNL     1      27.315  -1.761  52.649  1.00  0.00    +0.113 C 
ATOM     25  C   UNL     1      29.112  -0.658  53.862  1.00  0.00    +0.113 C 
ATOM     26  N   UNL     1      26.901  -2.643  52.020  1.00  0.00    -0.192 NA
ATOM     27  N   UNL     1      30.215  -0.638  54.227  1.00  0.00    -0.192 NA
BRANCH  22  28
ATOM     28  N   UNL     1      27.271   1.454  54.570  1.00  0.00    -0.396 N 
ATOM     29  H   UNL     1      28.271   1.545  54.757  1.00  0.00    +0.156 HD
ATOM     30  H   UNL     1      26.742   1.539  55.436  1.00  0.00    +0.156 HD
ENDBRANCH  22  28
ENDBRANCH   8  22
TORSDOF 3
ENDMDL
MODEL 2
REMARK VINA RESULT:    -8.107      2.200      5.777
REMARK INTER + INTRA:         -10.340
REMARK INTER:                  -9.346
REMARK INTRA:                  -0.994
REMARK UNBOUND:                -1.048
REMARK SMILES Cc1cccc(-c2ncnc3c2C(=C(C#N)C(N)=C(C#N)C#N)C(=O)N3)c1
REMARK SMILES IDX 7 1 8 2 9 3 10 4 11 5 12 6 13 7 14 8 15 9 16 10 24 11 25 12
REMARK SMILES IDX 26 13 6 15 2 16 3 17 27 18 4 19 5 20 1 21 17 22 19 23 20 24
REMARK SMILES IDX 22 25 21 26 23 27 18 28
REMARK H PARENT 26 14 18 29 18 30
ROOT
ATOM      1  C   UNL     1      24.954   2.315  51.627  1.00  0.00    +0.084 A 
ATOM      2  N   UNL     1      26.301   2.500  51.562  1.00  0.00    -0.236 NA
ATOM      3  C   UNL     1      27.091   1.643  52.232  1.00  0.00    +0.224 A 
ATOM      4  N   UNL     1      26.676   0.591  52.941  1.00  0.00    -0.218 NA
ATOM      5  C   UNL     1      25.350   0.485  52.995  1.00  0.00    +0.145 A 
ATOM      6  C   UNL     1      24.414   1.338  52.428  1.00  0.00    +0.058 A 
ATOM      7  C   UNL     1      23.091   0.806  52.805  1.00  0.00    +0.073 C 
ATOM      8  C   UNL     1      21.852   1.344  52.819  1.00  0.00    +0.091 C 
ATOM      9  C   UNL     1      21.603   2.717  52.500  1.00  0.00    +0.102 C 
ATOM     10  N   UNL     1      21.347   3.835  52.328  1.00  0.00    -0.192 NA
ATOM     11  C   UNL     1      23.360  -0.534  53.452  1.00  0.00    +0.259 C 
ATOM     12  O   UNL     1      22.548  -1.363  53.812  1.00  0.00    -0.269 OA
ATOM     13  N   UNL     1      24.724  -0.600  53.586  1.00  0.00    -0.306 N 
ATOM     14  H   UNL     1      25.229  -1.369  54.000  1.00  0.00    +0.171 HD
ENDROOT
BRANCH   1  15
ATOM     15  C   UNL     1      24.205   3.141  50.676  1.00  0.00    +0.001 A 
ATOM     16  C   UNL     1      22.785   3.346  48.689  1.00  0.00    -0.050 A 
ATOM     17  C   UNL     1      22.808   4.738  48.824  1.00  0.00    +0.003 A 
ATOM     18  C   UNL     1      23.479   2.559  49.619  1.00  0.00    +0.013 A 
ATOM     19  C   UNL     1      23.542   5.333  49.849  1.00  0.00    +0.001 A 
ATOM     20  C   UNL     1      24.241   4.542  50.761  1.00  0.00    +0.010 A 
ATOM     21  C   UNL     1      21.980   2.705  47.598  1.00  0.00    +0.044 C 
ENDBRANCH   1  15
BRANCH   8  22
ATOM     22  C   UNL     1      20.645   0.617  53.281  1.00  0.00    +0.079 C 
ATOM     23  C   UNL     1      19.708   0.181  52.395  1.00  0.00    +0.153 C 
ATOM     24  C   UNL     1      19.826   0.425  50.997  1.00  0.00    +0.113 C 
ATOM     25  C   UNL     1      18.552  -0.520  52.840  1.00  0.00    +0.113 C 
ATOM     26  N   UNL     1      19.965   0.663  49.870  1.00  0.00    -0.192 NA
ATOM     27  N   UNL     1      17.616  -1.087  53.230  1.00  0.00    -0.192 NA
BRANCH  22  28
ATOM     28  N   UNL     1      20.581   0.433  54.664  1.00  0.00    -0.396 N 
ATOM     29  H   UNL     1      21.474   0.226  55.115  1.00  0.00    +0.156 HD
ATOM     30  H   UNL     1      19.873  -0.234  54.966  1.00  0.00    +0.156 HD
ENDBRANCH  22  28
ENDBRANCH   8  22
TORSDOF 3
ENDMDL
MODEL 3
REMARK VINA RESULT:    -7.473      2.777      4.972
REMARK INTER + INTRA:          -9.613
REMARK INTER:                  -8.581
REMARK INTRA:                  -1.032
REMARK UNBOUND:                -1.048
REMARK SMILES Cc1cccc(-c2ncnc3c2C(=C(C#N)C(N)=C(C#N)C#N)C(=O)N3)c1
REMARK SMILES IDX 7 1 8 2 9 3 10 4 11 5 12 6 13 7 14 8 15 9 16 10 24 11 25 12
REMARK SMILES IDX 26 13 6 15 2 16 3 17 27 18 4 19 5 20 1 21 17 22 19 23 20 24
REMARK SMILES IDX 22 25 21 26 23 27 18 28
REMARK H PARENT 26 14 18 29 18 30
ROOT
ATOM      1  C   UNL     1      22.052   0.336  52.905  1.00  0.00    +0.084 A 
ATOM      2  N   UNL     1      21.734  -0.686  53.746  1.00  0.00    -0.236 NA
ATOM      3  C   UNL     1      22.721  -1.240  54.472  1.00  0.00    +0.224 A 
ATOM      4  N   UNL     1      23.999  -0.857  54.471  1.00  0.00    -0.218 NA
ATOM      5  C   UNL     1      24.253   0.120  53.603  1.00  0.00    +0.145 A 
ATOM      6  C   UNL     1      23.359   0.727  52.734  1.00  0.00    +0.058 A 
ATOM      7  C   UNL     1      24.138   1.717  51.966  1.00  0.00    +0.073 C 
ATOM      8  C   UNL     1      23.908   2.371  50.806  1.00  0.00    +0.091 C 
ATOM      9  C   UNL     1      22.757   2.121  49.993  1.00  0.00    +0.102 C 
ATOM     10  N   UNL     1      21.888   1.908  49.256  1.00  0.00    -0.192 NA
ATOM     11  C   UNL     1      25.498   1.763  52.624  1.00  0.00    +0.259 C 
ATOM     12  O   UNL     1      26.417   2.522  52.384  1.00  0.00    -0.269 OA
ATOM     13  N   UNL     1      25.493   0.734  53.531  1.00  0.00    -0.306 N 
ATOM     14  H   UNL     1      26.267   0.484  54.128  1.00  0.00    +0.171 HD
ENDROOT
BRANCH   1  15
ATOM     15  C   UNL     1      20.882   1.024  52.352  1.00  0.00    +0.001 A 
ATOM     16  C   UNL     1      18.842   1.001  50.994  1.00  0.00    -0.050 A 
ATOM     17  C   UNL     1      18.663   2.363  51.252  1.00  0.00    +0.003 A 
ATOM     18  C   UNL     1      19.948   0.341  51.550  1.00  0.00    +0.013 A 
ATOM     19  C   UNL     1      19.591   3.062  52.022  1.00  0.00    +0.001 A 
ATOM     20  C   UNL     1      20.696   2.400  52.559  1.00  0.00    +0.010 A 
ATOM     21  C   UNL     1      17.834   0.244  50.181  1.00  0.00    +0.044 C 
ENDBRANCH   1  15
BRANCH   8  22
ATOM     22  C   UNL     1      24.871   3.316  50.192  1.00  0.00    +0.079 C 
ATOM     23  C   UNL     1      24.724   4.662  50.341  1.00  0.00    +0.153 C 
ATOM     24  C   UNL     1      23.632   5.222  51.063  1.00  0.00    +0.113 C 
ATOM     25  C   UNL     1      25.651   5.567  49.753  1.00  0.00    +0.113 C 
ATOM     26  N   UNL     1      22.716   5.625  51.650  1.00  0.00    -0.192 NA
ATOM     27  N   UNL     1      26.419   6.285  49.260  1.00  0.00    -0.192 NA
BRANCH  22  28
ATOM     28  N   UNL     1      25.902   2.701  49.478  1.00  0.00    -0.396 N 
ATOM     29  H   UNL     1      26.560   2.163  50.046  1.00  0.00    +0.156 HD
ATOM     30  H   UNL     1      26.408   3.326  48.852  1.00  0.00    +0.156 HD
ENDBRANCH  22  28
ENDBRANCH   8  22
TORSDOF 3
ENDMDL
MODEL 4
REMARK VINA RESULT:    -7.298      4.173      7.849
REMARK INTER + INTRA:          -9.412
REMARK INTER:                  -8.766
REMARK INTRA:                  -0.647
REMARK UNBOUND:                -1.048
REMARK SMILES Cc1cccc(-c2ncnc3c2C(=C(C#N)C(N)=C(C#N)C#N)C(=O)N3)c1
REMARK SMILES IDX 7 1 8 2 9 3 10 4 11 5 12 6 13 7 14 8 15 9 16 10 24 11 25 12
REMARK SMILES IDX 26 13 6 15 2 16 3 17 27 18 4 19 5 20 1 21 17 22 19 23 20 24
REMARK SMILES IDX 22 25 21 26 23 27 18 28
REMARK H PARENT 26 14 18 29 18 30
ROOT
ATOM      1  C   UNL     1      21.515   0.802  51.989  1.00  0.00    +0.084 A 
ATOM      2  N   UNL     1      22.534   0.592  52.867  1.00  0.00    -0.236 NA
ATOM      3  C   UNL     1      22.277  -0.124  53.977  1.00  0.00    +0.224 A 
ATOM      4  N   UNL     1      21.107  -0.685  54.289  1.00  0.00    -0.218 NA
ATOM      5  C   UNL     1      20.144  -0.414  53.411  1.00  0.00    +0.145 A 
ATOM      6  C   UNL     1      20.240   0.374  52.273  1.00  0.00    +0.058 A 
ATOM      7  C   UNL     1      18.896   0.387  51.667  1.00  0.00    +0.073 C 
ATOM      8  C   UNL     1      18.302   1.193  50.759  1.00  0.00    +0.091 C 
ATOM      9  C   UNL     1      18.940   2.359  50.228  1.00  0.00    +0.102 C 
ATOM     10  N   UNL     1      19.372   3.355  49.821  1.00  0.00    -0.192 NA
ATOM     11  C   UNL     1      18.090  -0.631  52.441  1.00  0.00    +0.259 C 
ATOM     12  O   UNL     1      16.963  -1.022  52.209  1.00  0.00    -0.269 OA
ATOM     13  N   UNL     1      18.889  -0.995  53.495  1.00  0.00    -0.306 N 
ATOM     14  H   UNL     1      18.635  -1.654  54.216  1.00  0.00    +0.171 HD
ENDROOT
BRANCH   1  15
ATOM     15  C   UNL     1      21.952   1.374  50.713  1.00  0.00    +0.001 A 
ATOM     16  C   UNL     1      23.086   3.140  49.447  1.00  0.00    -0.050 A 
ATOM     17  C   UNL     1      22.747   2.493  48.255  1.00  0.00    +0.003 A 
ATOM     18  C   UNL     1      22.691   2.572  50.667  1.00  0.00    +0.013 A 
ATOM     19  C   UNL     1      21.995   1.320  48.279  1.00  0.00    +0.001 A 
ATOM     20  C   UNL     1      21.593   0.771  49.497  1.00  0.00    +0.010 A 
ATOM     21  C   UNL     1      23.912   4.392  49.422  1.00  0.00    +0.044 C 
ENDBRANCH   1  15
BRANCH   8  22
ATOM     22  C   UNL     1      16.897   1.034  50.313  1.00  0.00    +0.079 C 
ATOM     23  C   UNL     1      15.923   1.879  50.751  1.00  0.00    +0.153 C 
ATOM     24  C   UNL     1      16.199   2.929  51.672  1.00  0.00    +0.113 C 
ATOM     25  C   UNL     1      14.576   1.727  50.319  1.00  0.00    +0.113 C 
ATOM     26  N   UNL     1      16.477   3.760  52.434  1.00  0.00    -0.192 NA
ATOM     27  N   UNL     1      13.483   1.578  49.954  1.00  0.00    -0.192 NA
BRANCH  22  28
ATOM     28  N   UNL     1      16.693  -0.029  49.431  1.00  0.00    -0.396 N 
ATOM     29  H   UNL     1      17.520  -0.598  49.240  1.00  0.00    +0.156 HD
ATOM     30  H   UNL     1      16.237   0.233  48.557  1.00  0.00    +0.156 HD
ENDBRANCH  22  28
ENDBRANCH   8  22
TORSDOF 3
ENDMDL
MODEL 5
REMARK VINA RESULT:    -7.216      3.678      6.642
REMARK INTER + INTRA:          -9.318
REMARK INTER:                  -8.113
REMARK INTRA:                  -1.205
REMARK UNBOUND:                -1.048
REMARK SMILES Cc1cccc(-c2ncnc3c2C(=C(C#N)C(N)=C(C#N)C#N)C(=O)N3)c1
REMARK SMILES IDX 7 1 8 2 9 3 10 4 11 5 12 6 13 7 14 8 15 9 16 10 24 11 25 12
REMARK SMILES IDX 26 13 6 15 2 16 3 17 27 18 4 19 5 20 1 21 17 22 19 23 20 24
REMARK SMILES IDX 22 25 21 26 23 27 18 28
REMARK H PARENT 26 14 18 29 18 30
ROOT
ATOM      1  C   UNL     1      24.315   6.285  49.077  1.00  0.00    +0.084 A 
ATOM      2  N   UNL     1      24.749   7.263  48.236  1.00  0.00    -0.236 NA
ATOM      3  C   UNL     1      26.046   7.263  47.880  1.00  0.00    +0.224 A 
ATOM      4  N   UNL     1      26.957   6.361  48.252  1.00  0.00    -0.218 NA
ATOM      5  C   UNL     1      26.480   5.453  49.101  1.00  0.00    +0.145 A 
ATOM      6  C   UNL     1      25.195   5.380  49.620  1.00  0.00    +0.058 A 
ATOM      7  C   UNL     1      25.186   4.222  50.534  1.00  0.00    +0.073 C 
ATOM      8  C   UNL     1      24.356   3.841  51.531  1.00  0.00    +0.091 C 
ATOM      9  C   UNL     1      23.251   4.642  51.963  1.00  0.00    +0.102 C 
ATOM     10  N   UNL     1      22.390   5.278  52.409  1.00  0.00    -0.192 NA
ATOM     11  C   UNL     1      26.512   3.527  50.325  1.00  0.00    +0.259 C 
ATOM     12  O   UNL     1      26.881   2.468  50.794  1.00  0.00    -0.269 OA
ATOM     13  N   UNL     1      27.235   4.368  49.517  1.00  0.00    -0.306 N 
ATOM     14  H   UNL     1      28.178   4.201  49.201  1.00  0.00    +0.171 HD
ENDROOT
BRANCH   1  15
ATOM     15  C   UNL     1      22.856   6.231  49.206  1.00  0.00    +0.001 A 
ATOM     16  C   UNL     1      20.728   5.065  48.858  1.00  0.00    -0.050 A 
ATOM     17  C   UNL     1      20.049   6.154  49.412  1.00  0.00    +0.003 A 
ATOM     18  C   UNL     1      22.127   5.110  48.764  1.00  0.00    +0.013 A 
ATOM     19  C   UNL     1      20.751   7.283  49.832  1.00  0.00    +0.001 A 
ATOM     20  C   UNL     1      22.141   7.324  49.721  1.00  0.00    +0.010 A 
ATOM     21  C   UNL     1      19.975   3.843  48.424  1.00  0.00    +0.044 C 
ENDBRANCH   1  15
BRANCH   8  22
ATOM     22  C   UNL     1      24.568   2.630  52.359  1.00  0.00    +0.079 C 
ATOM     23  C   UNL     1      23.900   1.474  52.093  1.00  0.00    +0.153 C 
ATOM     24  C   UNL     1      22.952   1.382  51.033  1.00  0.00    +0.113 C 
ATOM     25  C   UNL     1      24.107   0.311  52.886  1.00  0.00    +0.113 C 
ATOM     26  N   UNL     1      22.181   1.366  50.166  1.00  0.00    -0.192 NA
ATOM     27  N   UNL     1      24.291  -0.623  53.551  1.00  0.00    -0.192 NA
BRANCH  22  28
ATOM     28  N   UNL     1      25.491   2.797  53.394  1.00  0.00    -0.396 N 
ATOM     29  H   UNL     1      26.435   2.464  53.190  1.00  0.00    +0.156 HD
ATOM     30  H   UNL     1      25.179   2.439  54.295  1.00  0.00    +0.156 HD
ENDBRANCH  22  28
ENDBRANCH   8  22
TORSDOF 3
ENDMDL
MODEL 6
REMARK VINA RESULT:    -7.139      3.347      7.184
REMARK INTER + INTRA:          -9.230
REMARK INTER:                  -8.624
REMARK INTRA:                  -0.606
REMARK UNBOUND:                -1.048
REMARK SMILES Cc1cccc(-c2ncnc3c2C(=C(C#N)C(N)=C(C#N)C#N)C(=O)N3)c1
REMARK SMILES IDX 7 1 8 2 9 3 10 4 11 5 12 6 13 7 14 8 15 9 16 10 24 11 25 12
REMARK SMILES IDX 26 13 6 15 2 16 3 17 27 18 4 19 5 20 1 21 17 22 19 23 20 24
REMARK SMILES IDX 22 25 21 26 23 27 18 28
REMARK H PARENT 26 14 18 29 18 30
ROOT
ATOM      1  C   UNL     1      24.712   1.490  52.222  1.00  0.00    +0.084 A 
ATOM      2  N   UNL     1      25.787   1.067  52.941  1.00  0.00    -0.236 NA
ATOM      3  C   UNL     1      26.999   1.548  52.612  1.00  0.00    +0.224 A 
ATOM      4  N   UNL     1      27.249   2.441  51.652  1.00  0.00    -0.218 NA
ATOM      5  C   UNL     1      26.164   2.788  50.963  1.00  0.00    +0.145 A 
ATOM      6  C   UNL     1      24.872   2.313  51.133  1.00  0.00    +0.058 A 
ATOM      7  C   UNL     1      24.050   2.978  50.104  1.00  0.00    +0.073 C 
ATOM      8  C   UNL     1      22.834   2.710  49.580  1.00  0.00    +0.091 C 
ATOM      9  C   UNL     1      22.083   1.543  49.932  1.00  0.00    +0.102 C 
ATOM     10  N   UNL     1      21.462   0.581  50.117  1.00  0.00    -0.192 NA
ATOM     11  C   UNL     1      24.946   4.024  49.481  1.00  0.00    +0.259 C 
ATOM     12  O   UNL     1      24.644   4.875  48.667  1.00  0.00    -0.269 OA
ATOM     13  N   UNL     1      26.193   3.784  50.001  1.00  0.00    -0.306 N 
ATOM     14  H   UNL     1      27.027   4.304  49.772  1.00  0.00    +0.171 HD
ENDROOT
BRANCH   1  15
ATOM     15  C   UNL     1      23.426   1.103  52.810  1.00  0.00    +0.001 A 
ATOM     16  C   UNL     1      21.922  -0.616  53.699  1.00  0.00    -0.050 A 
ATOM     17  C   UNL     1      20.937   0.357  53.893  1.00  0.00    +0.003 A 
ATOM     18  C   UNL     1      23.161  -0.235  53.163  1.00  0.00    +0.013 A 
ATOM     19  C   UNL     1      21.172   1.681  53.525  1.00  0.00    +0.001 A 
ATOM     20  C   UNL     1      22.403   2.048  52.980  1.00  0.00    +0.010 A 
ATOM     21  C   UNL     1      21.676  -2.037  54.111  1.00  0.00    +0.044 C 
ENDBRANCH   1  15
BRANCH   8  22
ATOM     22  C   UNL     1      22.206   3.515  48.506  1.00  0.00    +0.079 C 
ATOM     23  C   UNL     1      21.510   4.648  48.796  1.00  0.00    +0.153 C 
ATOM     24  C   UNL     1      21.328   5.096  50.136  1.00  0.00    +0.113 C 
ATOM     25  C   UNL     1      20.910   5.422  47.763  1.00  0.00    +0.113 C 
ATOM     26  N   UNL     1      21.200   5.407  51.246  1.00  0.00    -0.192 NA
ATOM     27  N   UNL     1      20.428   6.034  46.901  1.00  0.00    -0.192 NA
BRANCH  22  28
ATOM     28  N   UNL     1      22.402   3.007  47.220  1.00  0.00    -0.396 N 
ATOM     29  H   UNL     1      21.649   2.412  46.870  1.00  0.00    +0.156 HD
ATOM     30  H   UNL     1      23.303   2.551  47.083  1.00  0.00    +0.156 HD
ENDBRANCH  22  28
ENDBRANCH   8  22
TORSDOF 3
ENDMDL
MODEL 7
REMARK VINA RESULT:    -6.755      1.217      2.367
REMARK INTER + INTRA:          -8.790
REMARK INTER:                  -7.826
REMARK INTRA:                  -0.964
REMARK UNBOUND:                -1.048
REMARK SMILES Cc1cccc(-c2ncnc3c2C(=C(C#N)C(N)=C(C#N)C#N)C(=O)N3)c1
REMARK SMILES IDX 7 1 8 2 9 3 10 4 11 5 12 6 13 7 14 8 15 9 16 10 24 11 25 12
REMARK SMILES IDX 26 13 6 15 2 16 3 17 27 18 4 19 5 20 1 21 17 22 19 23 20 24
REMARK SMILES IDX 22 25 21 26 23 27 18 28
REMARK H PARENT 26 14 18 29 18 30
ROOT
ATOM      1  C   UNL     1      22.283   1.798  52.720  1.00  0.00    +0.084 A 
ATOM      2  N   UNL     1      20.931   1.867  52.858  1.00  0.00    -0.236 NA
ATOM      3  C   UNL     1      20.317   0.903  53.567  1.00  0.00    +0.224 A 
ATOM      4  N   UNL     1      20.920  -0.115  54.186  1.00  0.00    -0.218 NA
ATOM      5  C   UNL     1      22.236  -0.146  53.982  1.00  0.00    +0.145 A 
ATOM      6  C   UNL     1      22.989   0.726  53.210  1.00  0.00    +0.058 A 
ATOM      7  C   UNL     1      24.380   0.242  53.281  1.00  0.00    +0.073 C 
ATOM      8  C   UNL     1      25.476   0.472  52.524  1.00  0.00    +0.091 C 
ATOM      9  C   UNL     1      25.439   1.268  51.335  1.00  0.00    +0.102 C 
ATOM     10  N   UNL     1      25.458   1.837  50.325  1.00  0.00    -0.192 NA
ATOM     11  C   UNL     1      24.379  -0.850  54.327  1.00  0.00    +0.259 C 
ATOM     12  O   UNL     1      25.335  -1.446  54.783  1.00  0.00    -0.269 OA
ATOM     13  N   UNL     1      23.057  -1.057  54.628  1.00  0.00    -0.306 N 
ATOM     14  H   UNL     1      22.712  -1.738  55.287  1.00  0.00    +0.171 HD
ENDROOT
BRANCH   1  15
ATOM     15  C   UNL     1      22.874   3.012  52.147  1.00  0.00    +0.001 A 
ATOM     16  C   UNL     1      23.234   4.511  50.243  1.00  0.00    -0.050 A 
ATOM     17  C   UNL     1      24.051   5.318  51.041  1.00  0.00    +0.003 A 
ATOM     18  C   UNL     1      22.648   3.367  50.803  1.00  0.00    +0.013 A 
ATOM     19  C   UNL     1      24.307   4.967  52.366  1.00  0.00    +0.001 A 
ATOM     20  C   UNL     1      23.731   3.820  52.911  1.00  0.00    +0.010 A 
ATOM     21  C   UNL     1      22.943   4.898  48.823  1.00  0.00    +0.044 C 
ENDBRANCH   1  15
BRANCH   8  22
ATOM     22  C   UNL     1      26.792  -0.166  52.767  1.00  0.00    +0.079 C 
ATOM     23  C   UNL     1      27.798   0.516  53.380  1.00  0.00    +0.153 C 
ATOM     24  C   UNL     1      27.647   1.872  53.789  1.00  0.00    +0.113 C 
ATOM     25  C   UNL     1      29.060  -0.100  53.616  1.00  0.00    +0.113 C 
ATOM     26  N   UNL     1      27.474   2.979  54.089  1.00  0.00    -0.192 NA
ATOM     27  N   UNL     1      30.081  -0.624  53.793  1.00  0.00    -0.192 NA
BRANCH  22  28
ATOM     28  N   UNL     1      26.880  -1.486  52.321  1.00  0.00    -0.396 N 
ATOM     29  H   UNL     1      27.247  -1.600  51.375  1.00  0.00    +0.156 HD
ATOM     30  H   UNL     1      26.020  -2.023  52.431  1.00  0.00    +0.156 HD
ENDBRANCH  22  28
ENDBRANCH   8  22
TORSDOF 3
ENDMDL
MODEL 8
REMARK VINA RESULT:    -6.597      4.323      7.978
REMARK INTER + INTRA:          -8.609
REMARK INTER:                  -7.546
REMARK INTRA:                  -1.064
REMARK UNBOUND:                -1.048
REMARK SMILES Cc1cccc(-c2ncnc3c2C(=C(C#N)C(N)=C(C#N)C#N)C(=O)N3)c1
REMARK SMILES IDX 7 1 8 2 9 3 10 4 11 5 12 6 13 7 14 8 15 9 16 10 24 11 25 12
REMARK SMILES IDX 26 13 6 15 2 16 3 17 27 18 4 19 5 20 1 21 17 22 19 23 20 24
REMARK SMILES IDX 22 25 21 26 23 27 18 28
REMARK H PARENT 26 14 18 29 18 30
ROOT
ATOM      1  C   UNL     1      24.179   2.621  51.028  1.00  0.00    +0.084 A 
ATOM      2  N   UNL     1      25.023   1.735  51.623  1.00  0.00    -0.236 NA
ATOM      3  C   UNL     1      26.344   1.880  51.416  1.00  0.00    +0.224 A 
ATOM      4  N   UNL     1      26.919   2.848  50.697  1.00  0.00    -0.218 NA
ATOM      5  C   UNL     1      26.040   3.660  50.113  1.00  0.00    +0.145 A 
ATOM      6  C   UNL     1      24.656   3.580  50.167  1.00  0.00    +0.058 A 
ATOM      7  C   UNL     1      24.147   4.683  49.330  1.00  0.00    +0.073 C 
ATOM      8  C   UNL     1      22.947   4.930  48.760  1.00  0.00    +0.091 C 
ATOM      9  C   UNL     1      21.858   4.004  48.824  1.00  0.00    +0.102 C 
ATOM     10  N   UNL     1      20.966   3.264  48.775  1.00  0.00    -0.192 NA
ATOM     11  C   UNL     1      25.358   5.515  48.973  1.00  0.00    +0.259 C 
ATOM     12  O   UNL     1      25.384   6.580  48.387  1.00  0.00    -0.269 OA
ATOM     13  N   UNL     1      26.435   4.791  49.417  1.00  0.00    -0.306 N 
ATOM     14  H   UNL     1      27.401   5.066  49.318  1.00  0.00    +0.171 HD
ENDROOT
BRANCH   1  15
ATOM     15  C   UNL     1      22.798   2.525  51.509  1.00  0.00    +0.001 A 
ATOM     16  C   UNL     1      20.724   1.251  51.791  1.00  0.00    -0.050 A 
ATOM     17  C   UNL     1      20.129   2.364  52.392  1.00  0.00    +0.003 A 
ATOM     18  C   UNL     1      22.055   1.338  51.359  1.00  0.00    +0.013 A 
ATOM     19  C   UNL     1      20.840   3.556  52.526  1.00  0.00    +0.001 A 
ATOM     20  C   UNL     1      22.159   3.638  52.080  1.00  0.00    +0.010 A 
ATOM     21  C   UNL     1      19.966  -0.037  51.664  1.00  0.00    +0.044 C 
ENDBRANCH   1  15
BRANCH   8  22
ATOM     22  C   UNL     1      22.668   6.113  47.911  1.00  0.00    +0.079 C 
ATOM     23  C   UNL     1      22.187   7.265  48.452  1.00  0.00    +0.153 C 
ATOM     24  C   UNL     1      21.904   7.380  49.843  1.00  0.00    +0.113 C 
ATOM     25  C   UNL     1      21.923   8.401  47.636  1.00  0.00    +0.113 C 
ATOM     26  N   UNL     1      21.677   7.415  50.981  1.00  0.00    -0.192 NA
ATOM     27  N   UNL     1      21.712   9.312  46.947  1.00  0.00    -0.192 NA
BRANCH  22  28
ATOM     28  N   UNL     1      22.945   5.923  46.555  1.00  0.00    -0.396 N 
ATOM     29  H   UNL     1      23.453   6.688  46.106  1.00  0.00    +0.156 HD
ATOM     30  H   UNL     1      22.135   5.662  45.995  1.00  0.00    +0.156 HD
ENDBRANCH  22  28
ENDBRANCH   8  22
TORSDOF 3
ENDMDL
MODEL 9
REMARK VINA RESULT:    -6.223      3.584      7.021
REMARK INTER + INTRA:          -8.180
REMARK INTER:                  -7.164
REMARK INTRA:                  -1.015
REMARK UNBOUND:                -1.048
REMARK SMILES Cc1cccc(-c2ncnc3c2C(=C(C#N)C(N)=C(C#N)C#N)C(=O)N3)c1
REMARK SMILES IDX 7 1 8 2 9 3 10 4 11 5 12 6 13 7 14 8 15 9 16 10 24 11 25 12
REMARK SMILES IDX 26 13 6 15 2 16 3 17 27 18 4 19 5 20 1 21 17 22 19 23 20 24
REMARK SMILES IDX 22 25 21 26 23 27 18 28
REMARK H PARENT 26 14 18 29 18 30
ROOT
ATOM      1  C   UNL     1      23.371   2.329  51.751  1.00  0.00    +0.084 A 
ATOM      2  N   UNL     1      24.479   1.885  52.404  1.00  0.00    -0.236 NA
ATOM      3  C   UNL     1      24.381   0.751  53.120  1.00  0.00    +0.224 A 
ATOM      4  N   UNL     1      23.290  -0.011  53.228  1.00  0.00    -0.218 NA
ATOM      5  C   UNL     1      22.232   0.495  52.598  1.00  0.00    +0.145 A 
ATOM      6  C   UNL     1      22.164   1.689  51.895  1.00  0.00    +0.058 A 
ATOM      7  C   UNL     1      20.772   1.809  51.422  1.00  0.00    +0.073 C 
ATOM      8  C   UNL     1      20.038   2.850  50.971  1.00  0.00    +0.091 C 
ATOM      9  C   UNL     1      20.535   4.192  50.948  1.00  0.00    +0.102 C 
ATOM     10  N   UNL     1      20.852   5.307  50.976  1.00  0.00    -0.192 NA
ATOM     11  C   UNL     1      20.119   0.482  51.737  1.00  0.00    +0.259 C 
ATOM     12  O   UNL     1      19.008   0.104  51.420  1.00  0.00    -0.269 OA
ATOM     13  N   UNL     1      21.037  -0.199  52.496  1.00  0.00    -0.306 N 
ATOM     14  H   UNL     1      20.901  -1.120  52.884  1.00  0.00    +0.171 HD
ENDROOT
BRANCH   1  15
ATOM     15  C   UNL     1      23.645   3.422  50.813  1.00  0.00    +0.001 A 
ATOM     16  C   UNL     1      24.328   5.735  50.379  1.00  0.00    -0.050 A 
ATOM     17  C   UNL     1      24.121   5.532  49.011  1.00  0.00    +0.003 A 
ATOM     18  C   UNL     1      24.093   4.677  51.269  1.00  0.00    +0.013 A 
ATOM     19  C   UNL     1      23.653   4.304  48.544  1.00  0.00    +0.001 A 
ATOM     20  C   UNL     1      23.409   3.262  49.439  1.00  0.00    +0.010 A 
ATOM     21  C   UNL     1      24.849   7.049  50.879  1.00  0.00    +0.044 C 
ENDBRANCH   1  15
BRANCH   8  22
ATOM     22  C   UNL     1      18.613   2.741  50.574  1.00  0.00    +0.079 C 
ATOM     23  C   UNL     1      18.256   2.670  49.262  1.00  0.00    +0.153 C 
ATOM     24  C   UNL     1      19.222   2.726  48.217  1.00  0.00    +0.113 C 
ATOM     25  C   UNL     1      16.889   2.562  48.883  1.00  0.00    +0.113 C 
ATOM     26  N   UNL     1      20.048   2.790  47.405  1.00  0.00    -0.192 NA
ATOM     27  N   UNL     1      15.765   2.478  48.600  1.00  0.00    -0.192 NA
BRANCH  22  28
ATOM     28  N   UNL     1      17.720   2.715  51.647  1.00  0.00    -0.396 N 
ATOM     29  H   UNL     1      17.380   3.630  51.949  1.00  0.00    +0.156 HD
ATOM     30  H   UNL     1      18.045   2.178  52.450  1.00  0.00    +0.156 HD
ENDBRANCH  22  28
ENDBRANCH   8  22
TORSDOF 3
ENDMDL
