REMARK SMILES Cc1cc(C)c(-c2ccc(OC[C@@H](O)C[N+](C)(C)C)nc2)[nH]1
REMARK SMILES IDX 12 1 11 2 10 3 7 4 8 5 21 6 9 7 20 8 6 9 2 10 3 11 22 12
REMARK SMILES IDX 4 13 1 14 5 16 13 17 14 18 15 20 16 21 17 22 18 23 19 24
REMARK H PARENT 22 15 14 19
ROOT
ATOM      1  C   UNL     1      -1.747   1.120   0.041  1.00  0.00    +0.269 C 
ENDROOT
BRANCH   1   2
ATOM      2  O   UNL     1      -1.073   0.102  -0.705  1.00  0.00    -0.475 OA
BRANCH   2   3
ATOM      3  C   UNL     1       0.289   0.086  -0.473  1.00  0.00    +0.213 A 
ATOM      4  C   UNL     1       3.000  -0.013  -0.070  1.00  0.00    +0.017 A 
ATOM      5  C   UNL     1       2.422  -0.800  -1.066  1.00  0.00    +0.017 A 
ATOM      6  C   UNL     1       2.146   0.794   0.678  1.00  0.00    +0.125 A 
ATOM      7  C   UNL     1       1.045  -0.754  -1.274  1.00  0.00    +0.069 A 
ATOM      8  N   UNL     1       0.801   0.856   0.507  1.00  0.00    -0.221 NA
BRANCH   4   9
ATOM      9  C   UNL     1       4.439  -0.035   0.169  1.00  0.00    +0.050 A 
ATOM     10  C   UNL     1       6.340  -0.265   1.369  1.00  0.00    +0.012 A 
ATOM     11  C   UNL     1       6.699   0.009   0.069  1.00  0.00    +0.026 A 
ATOM     12  N   UNL     1       4.970  -0.288   1.417  1.00  0.00    -0.358 N 
ATOM     13  C   UNL     1       5.509   0.157  -0.698  1.00  0.00    -0.025 A 
ATOM     14  C   UNL     1       7.168  -0.512   2.575  1.00  0.00    +0.064 C 
ATOM     15  H   UNL     1       4.427  -0.488   2.246  1.00  0.00    +0.166 HD
ATOM     16  C   UNL     1       5.454   0.471  -2.151  1.00  0.00    +0.047 C 
ENDBRANCH   4   9
ENDBRANCH   2   3
ENDBRANCH   1   2
BRANCH   1  17
ATOM     17  C   UNL     1      -3.245   1.086  -0.308  1.00  0.00    +0.206 C 
BRANCH  17  18
ATOM     18  O   UNL     1      -3.448   1.422  -1.688  1.00  0.00    -0.384 OA
ATOM     19  H   UNL     1      -2.769   2.071  -1.954  1.00  0.00    +0.211 HD
ENDBRANCH  17  18
BRANCH  17  20
ATOM     20  C   UNL     1      -3.823  -0.322  -0.030  1.00  0.00    +0.299 C 
BRANCH  20  21
ATOM     21  N   UNL     1      -5.375  -0.429  -0.125  1.00  0.00    -0.329 N 
ATOM     22  C   UNL     1      -5.747  -1.895   0.096  1.00  0.00    +0.334 C 
ATOM     23  C   UNL     1      -5.877  -0.014  -1.506  1.00  0.00    +0.334 C 
ATOM     24  C   UNL     1      -6.059   0.413   0.938  1.00  0.00    +0.334 C 
ENDBRANCH  20  21
ENDBRANCH  17  20
ENDBRANCH   1  17
TORSDOF 7
