MODEL 1
REMARK VINA RESULT:    -8.911      0.000      0.000
REMARK INTER + INTRA:         -11.353
REMARK INTER:                 -10.474
REMARK INTRA:                  -0.879
REMARK UNBOUND:                -0.879
REMARK SMILES Cc1cccc(C=C2C(=O)N(C)c3ncnc(Nc4ccccn4)c32)c1
REMARK SMILES IDX 7 1 8 2 9 3 10 4 11 5 12 6 13 7 14 8 15 9 16 10 17 11 25 12
REMARK SMILES IDX 6 13 2 14 3 15 26 16 4 17 5 18 1 19 18 20 19 22 20 23 24 24
REMARK SMILES IDX 21 25 23 26 22 27
REMARK H PARENT 18 21
ROOT
ATOM      1  C   UNL     1      24.396  -0.511  54.276  1.00  0.00    +0.023 C 
ATOM      2  C   UNL     1      23.233  -0.198  53.678  1.00  0.00    +0.055 C 
ATOM      3  C   UNL     1      21.984  -0.760  54.315  1.00  0.00    +0.260 C 
ATOM      4  O   UNL     1      21.911  -1.331  55.389  1.00  0.00    -0.269 OA
ATOM      5  N   UNL     1      20.980  -0.503  53.409  1.00  0.00    -0.295 N 
ATOM      6  C   UNL     1      19.596  -0.857  53.567  1.00  0.00    +0.155 C 
ATOM      7  C   UNL     1      21.453   0.224  52.311  1.00  0.00    +0.148 A 
ATOM      8  N   UNL     1      20.658   0.628  51.317  1.00  0.00    -0.218 NA
ATOM      9  C   UNL     1      21.292   1.370  50.410  1.00  0.00    +0.226 A 
ATOM     10  N   UNL     1      22.580   1.741  50.456  1.00  0.00    -0.218 NA
ATOM     11  C   UNL     1      23.359   1.302  51.474  1.00  0.00    +0.145 A 
ATOM     12  C   UNL     1      22.815   0.486  52.443  1.00  0.00    +0.073 A 
ENDROOT
BRANCH   1  13
ATOM     13  C   UNL     1      25.755  -0.268  53.803  1.00  0.00    -0.025 A 
ATOM     14  C   UNL     1      27.687   1.193  53.565  1.00  0.00    -0.051 A 
ATOM     15  C   UNL     1      28.372   0.157  52.917  1.00  0.00    +0.003 A 
ATOM     16  C   UNL     1      26.375   0.972  54.006  1.00  0.00    +0.011 A 
ATOM     17  C   UNL     1      27.748  -1.070  52.690  1.00  0.00    +0.001 A 
ATOM     18  C   UNL     1      26.442  -1.282  53.128  1.00  0.00    +0.008 A 
ATOM     19  C   UNL     1      28.370   2.498  53.848  1.00  0.00    +0.044 C 
ENDBRANCH   1  13
BRANCH  11  20
ATOM     20  N   UNL     1      24.648   1.844  51.591  1.00  0.00    -0.324 N 
ATOM     21  H   UNL     1      25.372   1.143  51.616  1.00  0.00    +0.170 HD
BRANCH  20  22
ATOM     22  C   UNL     1      25.151   2.958  50.877  1.00  0.00    +0.131 A 
ATOM     23  C   UNL     1      26.303   2.764  50.111  1.00  0.00    +0.047 A 
ATOM     24  N   UNL     1      24.526   4.155  50.904  1.00  0.00    -0.239 NA
ATOM     25  C   UNL     1      26.828   3.821  49.370  1.00  0.00    +0.005 A 
ATOM     26  C   UNL     1      25.056   5.170  50.187  1.00  0.00    +0.113 A 
ATOM     27  C   UNL     1      26.193   5.053  49.409  1.00  0.00    +0.020 A 
ENDBRANCH  20  22
ENDBRANCH  11  20
TORSDOF 3
ENDMDL
MODEL 2
REMARK VINA RESULT:    -8.881      2.465      5.588
REMARK INTER + INTRA:         -11.318
REMARK INTER:                 -10.173
REMARK INTRA:                  -1.144
REMARK UNBOUND:                -0.879
REMARK SMILES Cc1cccc(C=C2C(=O)N(C)c3ncnc(Nc4ccccn4)c32)c1
REMARK SMILES IDX 7 1 8 2 9 3 10 4 11 5 12 6 13 7 14 8 15 9 16 10 17 11 25 12
REMARK SMILES IDX 6 13 2 14 3 15 26 16 4 17 5 18 1 19 18 20 19 22 20 23 24 24
REMARK SMILES IDX 21 25 23 26 22 27
REMARK H PARENT 18 21
ROOT
ATOM      1  C   UNL     1      26.528   2.603  50.938  1.00  0.00    +0.023 C 
ATOM      2  C   UNL     1      25.520   3.265  50.344  1.00  0.00    +0.055 C 
ATOM      3  C   UNL     1      25.917   4.386  49.412  1.00  0.00    +0.260 C 
ATOM      4  O   UNL     1      27.043   4.646  49.029  1.00  0.00    -0.269 OA
ATOM      5  N   UNL     1      24.739   5.040  49.126  1.00  0.00    -0.295 N 
ATOM      6  C   UNL     1      24.603   6.190  48.275  1.00  0.00    +0.155 C 
ATOM      7  C   UNL     1      23.642   4.404  49.717  1.00  0.00    +0.148 A 
ATOM      8  N   UNL     1      22.387   4.829  49.553  1.00  0.00    -0.218 NA
ATOM      9  C   UNL     1      21.487   4.040  50.138  1.00  0.00    +0.226 A 
ATOM     10  N   UNL     1      21.748   2.904  50.801  1.00  0.00    -0.218 NA
ATOM     11  C   UNL     1      23.035   2.511  50.959  1.00  0.00    +0.145 A 
ATOM     12  C   UNL     1      24.051   3.281  50.435  1.00  0.00    +0.073 A 
ENDROOT
BRANCH   1  13
ATOM     13  C   UNL     1      26.459   1.608  52.004  1.00  0.00    -0.025 A 
ATOM     14  C   UNL     1      26.601  -0.700  52.760  1.00  0.00    -0.051 A 
ATOM     15  C   UNL     1      26.355  -0.270  54.071  1.00  0.00    +0.003 A 
ATOM     16  C   UNL     1      26.650   0.248  51.730  1.00  0.00    +0.011 A 
ATOM     17  C   UNL     1      26.138   1.081  54.343  1.00  0.00    +0.001 A 
ATOM     18  C   UNL     1      26.186   2.018  53.312  1.00  0.00    +0.008 A 
ATOM     19  C   UNL     1      26.877  -2.146  52.472  1.00  0.00    +0.044 C 
ENDBRANCH   1  13
BRANCH  11  20
ATOM     20  N   UNL     1      23.268   1.237  51.502  1.00  0.00    -0.324 N 
ATOM     21  H   UNL     1      24.246   1.035  51.634  1.00  0.00    +0.170 HD
BRANCH  20  22
ATOM     22  C   UNL     1      22.557   0.647  52.575  1.00  0.00    +0.131 A 
ATOM     23  C   UNL     1      23.009  -0.589  53.042  1.00  0.00    +0.047 A 
ATOM     24  N   UNL     1      21.504   1.267  53.150  1.00  0.00    -0.239 NA
ATOM     25  C   UNL     1      22.359  -1.205  54.111  1.00  0.00    +0.005 A 
ATOM     26  C   UNL     1      20.882   0.650  54.178  1.00  0.00    +0.113 A 
ATOM     27  C   UNL     1      21.270  -0.574  54.693  1.00  0.00    +0.020 A 
ENDBRANCH  20  22
ENDBRANCH  11  20
TORSDOF 3
ENDMDL
MODEL 3
REMARK VINA RESULT:    -8.611      2.170      5.015
REMARK INTER + INTRA:         -11.001
REMARK INTER:                  -9.518
REMARK INTRA:                  -1.483
REMARK UNBOUND:                -0.879
REMARK SMILES Cc1cccc(C=C2C(=O)N(C)c3ncnc(Nc4ccccn4)c32)c1
REMARK SMILES IDX 7 1 8 2 9 3 10 4 11 5 12 6 13 7 14 8 15 9 16 10 17 11 25 12
REMARK SMILES IDX 6 13 2 14 3 15 26 16 4 17 5 18 1 19 18 20 19 22 20 23 24 24
REMARK SMILES IDX 21 25 23 26 22 27
REMARK H PARENT 18 21
ROOT
ATOM      1  C   UNL     1      22.660   1.372  51.338  1.00  0.00    +0.023 C 
ATOM      2  C   UNL     1      23.756   1.024  52.034  1.00  0.00    +0.055 C 
ATOM      3  C   UNL     1      23.564  -0.038  53.091  1.00  0.00    +0.260 C 
ATOM      4  O   UNL     1      22.566  -0.713  53.268  1.00  0.00    -0.269 OA
ATOM      5  N   UNL     1      24.744  -0.045  53.802  1.00  0.00    -0.295 N 
ATOM      6  C   UNL     1      25.043  -0.893  54.923  1.00  0.00    +0.155 C 
ATOM      7  C   UNL     1      25.677   0.843  53.256  1.00  0.00    +0.148 A 
ATOM      8  N   UNL     1      26.910   0.986  53.748  1.00  0.00    -0.218 NA
ATOM      9  C   UNL     1      27.663   1.825  53.038  1.00  0.00    +0.226 A 
ATOM     10  N   UNL     1      27.290   2.459  51.916  1.00  0.00    -0.218 NA
ATOM     11  C   UNL     1      26.027   2.301  51.454  1.00  0.00    +0.145 A 
ATOM     12  C   UNL     1      25.148   1.490  52.141  1.00  0.00    +0.073 A 
ENDROOT
BRANCH   1  13
ATOM     13  C   UNL     1      22.495   2.472  50.392  1.00  0.00    -0.025 A 
ATOM     14  C   UNL     1      22.096   4.827  49.930  1.00  0.00    -0.051 A 
ATOM     15  C   UNL     1      22.219   4.564  48.559  1.00  0.00    +0.003 A 
ATOM     16  C   UNL     1      22.235   3.773  50.842  1.00  0.00    +0.011 A 
ATOM     17  C   UNL     1      22.451   3.265  48.107  1.00  0.00    +0.001 A 
ATOM     18  C   UNL     1      22.586   2.220  49.020  1.00  0.00    +0.008 A 
ATOM     19  C   UNL     1      21.888   6.229  50.421  1.00  0.00    +0.044 C 
ENDBRANCH   1  13
BRANCH  11  20
ATOM     20  N   UNL     1      25.721   2.833  50.191  1.00  0.00    -0.324 N 
ATOM     21  H   UNL     1      24.734   2.824  49.986  1.00  0.00    +0.170 HD
BRANCH  20  22
ATOM     22  C   UNL     1      26.268   4.012  49.631  1.00  0.00    +0.131 A 
ATOM     23  C   UNL     1      25.534   5.192  49.774  1.00  0.00    +0.047 A 
ATOM     24  N   UNL     1      27.467   4.008  49.010  1.00  0.00    -0.239 NA
ATOM     25  C   UNL     1      26.036   6.387  49.260  1.00  0.00    +0.005 A 
ATOM     26  C   UNL     1      27.933   5.174  48.510  1.00  0.00    +0.113 A 
ATOM     27  C   UNL     1      27.262   6.380  48.612  1.00  0.00    +0.020 A 
ENDBRANCH  20  22
ENDBRANCH  11  20
TORSDOF 3
ENDMDL
MODEL 4
REMARK VINA RESULT:    -8.523      1.201      1.959
REMARK INTER + INTRA:         -10.896
REMARK INTER:                 -10.103
REMARK INTRA:                  -0.794
REMARK UNBOUND:                -0.879
REMARK SMILES Cc1cccc(C=C2C(=O)N(C)c3ncnc(Nc4ccccn4)c32)c1
REMARK SMILES IDX 7 1 8 2 9 3 10 4 11 5 12 6 13 7 14 8 15 9 16 10 17 11 25 12
REMARK SMILES IDX 6 13 2 14 3 15 26 16 4 17 5 18 1 19 18 20 19 22 20 23 24 24
REMARK SMILES IDX 21 25 23 26 22 27
REMARK H PARENT 18 21
ROOT
ATOM      1  C   UNL     1      23.082   0.272  53.491  1.00  0.00    +0.023 C 
ATOM      2  C   UNL     1      22.154   0.543  52.556  1.00  0.00    +0.055 C 
ATOM      3  C   UNL     1      20.749   0.076  52.857  1.00  0.00    +0.260 C 
ATOM      4  O   UNL     1      20.346  -0.377  53.913  1.00  0.00    -0.269 OA
ATOM      5  N   UNL     1      20.058   0.256  51.679  1.00  0.00    -0.295 N 
ATOM      6  C   UNL     1      18.671  -0.052  51.464  1.00  0.00    +0.155 C 
ATOM      7  C   UNL     1      20.859   0.854  50.700  1.00  0.00    +0.148 A 
ATOM      8  N   UNL     1      20.402   1.165  49.485  1.00  0.00    -0.218 NA
ATOM      9  C   UNL     1      21.304   1.795  48.733  1.00  0.00    +0.226 A 
ATOM     10  N   UNL     1      22.542   2.144  49.113  1.00  0.00    -0.218 NA
ATOM     11  C   UNL     1      22.976   1.799  50.349  1.00  0.00    +0.145 A 
ATOM     12  C   UNL     1      22.139   1.101  51.194  1.00  0.00    +0.073 A 
ENDROOT
BRANCH   1  13
ATOM     13  C   UNL     1      24.530   0.437  53.409  1.00  0.00    -0.025 A 
ATOM     14  C   UNL     1      26.750  -0.485  53.032  1.00  0.00    -0.051 A 
ATOM     15  C   UNL     1      27.296   0.791  53.224  1.00  0.00    +0.003 A 
ATOM     16  C   UNL     1      25.362  -0.654  53.128  1.00  0.00    +0.011 A 
ATOM     17  C   UNL     1      26.473   1.874  53.531  1.00  0.00    +0.001 A 
ATOM     18  C   UNL     1      25.093   1.698  53.627  1.00  0.00    +0.008 A 
ATOM     19  C   UNL     1      27.629  -1.642  52.661  1.00  0.00    +0.044 C 
ENDBRANCH   1  13
BRANCH  11  20
ATOM     20  N   UNL     1      24.204   2.325  50.781  1.00  0.00    -0.324 N 
ATOM     21  H   UNL     1      24.894   1.616  50.971  1.00  0.00    +0.170 HD
BRANCH  20  22
ATOM     22  C   UNL     1      24.874   3.440  50.222  1.00  0.00    +0.131 A 
ATOM     23  C   UNL     1      26.153   3.227  49.704  1.00  0.00    +0.047 A 
ATOM     24  N   UNL     1      24.291   4.656  50.160  1.00  0.00    -0.239 NA
ATOM     25  C   UNL     1      26.850   4.285  49.122  1.00  0.00    +0.005 A 
ATOM     26  C   UNL     1      24.985   5.671  49.601  1.00  0.00    +0.113 A 
ATOM     27  C   UNL     1      26.255   5.537  49.070  1.00  0.00    +0.020 A 
ENDBRANCH  20  22
ENDBRANCH  11  20
TORSDOF 3
ENDMDL
MODEL 5
REMARK VINA RESULT:    -8.504      2.174      4.713
REMARK INTER + INTRA:         -10.874
REMARK INTER:                  -9.462
REMARK INTRA:                  -1.413
REMARK UNBOUND:                -0.879
REMARK SMILES Cc1cccc(C=C2C(=O)N(C)c3ncnc(Nc4ccccn4)c32)c1
REMARK SMILES IDX 7 1 8 2 9 3 10 4 11 5 12 6 13 7 14 8 15 9 16 10 17 11 25 12
REMARK SMILES IDX 6 13 2 14 3 15 26 16 4 17 5 18 1 19 18 20 19 22 20 23 24 24
REMARK SMILES IDX 21 25 23 26 22 27
REMARK H PARENT 18 21
ROOT
ATOM      1  C   UNL     1      20.618   1.436  50.810  1.00  0.00    +0.023 C 
ATOM      2  C   UNL     1      20.517   0.477  51.746  1.00  0.00    +0.055 C 
ATOM      3  C   UNL     1      19.147  -0.134  51.927  1.00  0.00    +0.260 C 
ATOM      4  O   UNL     1      18.174   0.042  51.217  1.00  0.00    -0.269 OA
ATOM      5  N   UNL     1      19.250  -0.896  53.070  1.00  0.00    -0.295 N 
ATOM      6  C   UNL     1      18.194  -1.674  53.657  1.00  0.00    +0.155 C 
ATOM      7  C   UNL     1      20.554  -0.888  53.577  1.00  0.00    +0.148 A 
ATOM      8  N   UNL     1      20.912  -1.585  54.657  1.00  0.00    -0.218 NA
ATOM      9  C   UNL     1      22.214  -1.500  54.927  1.00  0.00    +0.226 A 
ATOM     10  N   UNL     1      23.126  -0.832  54.204  1.00  0.00    -0.218 NA
ATOM     11  C   UNL     1      22.723  -0.125  53.122  1.00  0.00    +0.145 A 
ATOM     12  C   UNL     1      21.387  -0.105  52.780  1.00  0.00    +0.073 A 
ENDROOT
BRANCH   1  13
ATOM     13  C   UNL     1      21.748   2.319  50.532  1.00  0.00    -0.025 A 
ATOM     14  C   UNL     1      23.184   4.182  51.153  1.00  0.00    -0.051 A 
ATOM     15  C   UNL     1      23.936   3.970  49.990  1.00  0.00    +0.003 A 
ATOM     16  C   UNL     1      22.088   3.350  51.417  1.00  0.00    +0.011 A 
ATOM     17  C   UNL     1      23.584   2.962  49.093  1.00  0.00    +0.001 A 
ATOM     18  C   UNL     1      22.490   2.140  49.360  1.00  0.00    +0.008 A 
ATOM     19  C   UNL     1      23.587   5.238  52.139  1.00  0.00    +0.044 C 
ENDBRANCH   1  13
BRANCH  11  20
ATOM     20  N   UNL     1      23.715   0.417  52.289  1.00  0.00    -0.324 N 
ATOM     21  H   UNL     1      23.402   1.224  51.773  1.00  0.00    +0.170 HD
BRANCH  20  22
ATOM     22  C   UNL     1      25.071   0.627  52.638  1.00  0.00    +0.131 A 
ATOM     23  C   UNL     1      25.413   1.874  53.167  1.00  0.00    +0.047 A 
ATOM     24  N   UNL     1      25.995  -0.348  52.498  1.00  0.00    -0.239 NA
ATOM     25  C   UNL     1      26.730   2.128  53.547  1.00  0.00    +0.005 A 
ATOM     26  C   UNL     1      27.268  -0.080  52.864  1.00  0.00    +0.113 A 
ATOM     27  C   UNL     1      27.680   1.130  53.392  1.00  0.00    +0.020 A 
ENDBRANCH  20  22
ENDBRANCH  11  20
TORSDOF 3
ENDMDL
MODEL 6
REMARK VINA RESULT:    -8.358      2.562      6.034
REMARK INTER + INTRA:         -10.703
REMARK INTER:                  -8.773
REMARK INTRA:                  -1.930
REMARK UNBOUND:                -0.879
REMARK SMILES Cc1cccc(C=C2C(=O)N(C)c3ncnc(Nc4ccccn4)c32)c1
REMARK SMILES IDX 7 1 8 2 9 3 10 4 11 5 12 6 13 7 14 8 15 9 16 10 17 11 25 12
REMARK SMILES IDX 6 13 2 14 3 15 26 16 4 17 5 18 1 19 18 20 19 22 20 23 24 24
REMARK SMILES IDX 21 25 23 26 22 27
REMARK H PARENT 18 21
ROOT
ATOM      1  C   UNL     1      25.695   3.104  51.387  1.00  0.00    +0.023 C 
ATOM      2  C   UNL     1      25.839   2.124  52.297  1.00  0.00    +0.055 C 
ATOM      3  C   UNL     1      27.257   1.789  52.695  1.00  0.00    +0.260 C 
ATOM      4  O   UNL     1      28.261   2.411  52.397  1.00  0.00    -0.269 OA
ATOM      5  N   UNL     1      27.151   0.631  53.434  1.00  0.00    -0.295 N 
ATOM      6  C   UNL     1      28.243  -0.085  54.033  1.00  0.00    +0.155 C 
ATOM      7  C   UNL     1      25.815   0.251  53.603  1.00  0.00    +0.148 A 
ATOM      8  N   UNL     1      25.455  -0.819  54.316  1.00  0.00    -0.218 NA
ATOM      9  C   UNL     1      24.133  -0.961  54.415  1.00  0.00    +0.226 A 
ATOM     10  N   UNL     1      23.212  -0.128  53.907  1.00  0.00    -0.218 NA
ATOM     11  C   UNL     1      23.615   0.940  53.178  1.00  0.00    +0.145 A 
ATOM     12  C   UNL     1      24.962   1.154  52.972  1.00  0.00    +0.073 A 
ENDROOT
BRANCH   1  13
ATOM     13  C   UNL     1      24.484   3.523  50.688  1.00  0.00    -0.025 A 
ATOM     14  C   UNL     1      22.906   3.281  48.852  1.00  0.00    -0.051 A 
ATOM     15  C   UNL     1      22.143   4.326  49.389  1.00  0.00    +0.003 A 
ATOM     16  C   UNL     1      24.079   2.885  49.508  1.00  0.00    +0.011 A 
ATOM     17  C   UNL     1      22.558   4.981  50.548  1.00  0.00    +0.001 A 
ATOM     18  C   UNL     1      23.728   4.584  51.195  1.00  0.00    +0.008 A 
ATOM     19  C   UNL     1      22.439   2.547  47.629  1.00  0.00    +0.044 C 
ENDBRANCH   1  13
BRANCH  11  20
ATOM     20  N   UNL     1      22.644   1.884  52.810  1.00  0.00    -0.324 N 
ATOM     21  H   UNL     1      23.034   2.783  52.575  1.00  0.00    +0.170 HD
BRANCH  20  22
ATOM     22  C   UNL     1      21.544   1.654  51.949  1.00  0.00    +0.131 A 
ATOM     23  C   UNL     1      21.695   0.680  50.958  1.00  0.00    +0.047 A 
ATOM     24  N   UNL     1      20.380   2.322  52.097  1.00  0.00    -0.239 NA
ATOM     25  C   UNL     1      20.636   0.398  50.097  1.00  0.00    +0.005 A 
ATOM     26  C   UNL     1      19.368   2.041  51.246  1.00  0.00    +0.113 A 
ATOM     27  C   UNL     1      19.445   1.093  50.242  1.00  0.00    +0.020 A 
ENDBRANCH  20  22
ENDBRANCH  11  20
TORSDOF 3
ENDMDL
MODEL 7
REMARK VINA RESULT:    -8.347      2.310      5.366
REMARK INTER + INTRA:         -10.690
REMARK INTER:                  -9.524
REMARK INTRA:                  -1.166
REMARK UNBOUND:                -0.879
REMARK SMILES Cc1cccc(C=C2C(=O)N(C)c3ncnc(Nc4ccccn4)c32)c1
REMARK SMILES IDX 7 1 8 2 9 3 10 4 11 5 12 6 13 7 14 8 15 9 16 10 17 11 25 12
REMARK SMILES IDX 6 13 2 14 3 15 26 16 4 17 5 18 1 19 18 20 19 22 20 23 24 24
REMARK SMILES IDX 21 25 23 26 22 27
REMARK H PARENT 18 21
ROOT
ATOM      1  C   UNL     1      24.982  -1.217  52.922  1.00  0.00    +0.023 C 
ATOM      2  C   UNL     1      26.230  -0.732  53.045  1.00  0.00    +0.055 C 
ATOM      3  C   UNL     1      27.352  -1.717  52.812  1.00  0.00    +0.260 C 
ATOM      4  O   UNL     1      27.245  -2.850  52.379  1.00  0.00    -0.269 OA
ATOM      5  N   UNL     1      28.490  -1.056  53.218  1.00  0.00    -0.295 N 
ATOM      6  C   UNL     1      29.825  -1.589  53.193  1.00  0.00    +0.155 C 
ATOM      7  C   UNL     1      28.210   0.258  53.607  1.00  0.00    +0.148 A 
ATOM      8  N   UNL     1      29.157   1.111  54.005  1.00  0.00    -0.218 NA
ATOM      9  C   UNL     1      28.688   2.333  54.258  1.00  0.00    +0.226 A 
ATOM     10  N   UNL     1      27.417   2.735  54.110  1.00  0.00    -0.218 NA
ATOM     11  C   UNL     1      26.481   1.838  53.717  1.00  0.00    +0.145 A 
ATOM     12  C   UNL     1      26.849   0.531  53.475  1.00  0.00    +0.073 A 
ENDROOT
BRANCH   1  13
ATOM     13  C   UNL     1      23.718  -0.566  53.253  1.00  0.00    -0.025 A 
ATOM     14  C   UNL     1      21.872   0.904  52.659  1.00  0.00    -0.051 A 
ATOM     15  C   UNL     1      21.280   0.638  53.900  1.00  0.00    +0.003 A 
ATOM     16  C   UNL     1      23.095   0.297  52.342  1.00  0.00    +0.011 A 
ATOM     17  C   UNL     1      21.911  -0.200  54.820  1.00  0.00    +0.001 A 
ATOM     18  C   UNL     1      23.129  -0.798  54.499  1.00  0.00    +0.008 A 
ATOM     19  C   UNL     1      21.175   1.771  51.652  1.00  0.00    +0.044 C 
ENDBRANCH   1  13
BRANCH  11  20
ATOM     20  N   UNL     1      25.202   2.324  53.404  1.00  0.00    -0.324 N 
ATOM     21  H   UNL     1      24.726   2.727  54.196  1.00  0.00    +0.170 HD
BRANCH  20  22
ATOM     22  C   UNL     1      24.858   3.084  52.260  1.00  0.00    +0.131 A 
ATOM     23  C   UNL     1      25.475   2.746  51.054  1.00  0.00    +0.047 A 
ATOM     24  N   UNL     1      23.944   4.077  52.322  1.00  0.00    -0.239 NA
ATOM     25  C   UNL     1      25.157   3.448  49.892  1.00  0.00    +0.005 A 
ATOM     26  C   UNL     1      23.656   4.752  51.187  1.00  0.00    +0.113 A 
ATOM     27  C   UNL     1      24.228   4.475  49.958  1.00  0.00    +0.020 A 
ENDBRANCH  20  22
ENDBRANCH  11  20
TORSDOF 3
ENDMDL
MODEL 8
REMARK VINA RESULT:    -8.276      2.664      6.352
REMARK INTER + INTRA:         -10.607
REMARK INTER:                  -8.839
REMARK INTRA:                  -1.768
REMARK UNBOUND:                -0.879
REMARK SMILES Cc1cccc(C=C2C(=O)N(C)c3ncnc(Nc4ccccn4)c32)c1
REMARK SMILES IDX 7 1 8 2 9 3 10 4 11 5 12 6 13 7 14 8 15 9 16 10 17 11 25 12
REMARK SMILES IDX 6 13 2 14 3 15 26 16 4 17 5 18 1 19 18 20 19 22 20 23 24 24
REMARK SMILES IDX 21 25 23 26 22 27
REMARK H PARENT 18 21
ROOT
ATOM      1  C   UNL     1      23.851   2.146  50.782  1.00  0.00    +0.023 C 
ATOM      2  C   UNL     1      23.939   1.364  51.872  1.00  0.00    +0.055 C 
ATOM      3  C   UNL     1      25.313   0.829  52.199  1.00  0.00    +0.260 C 
ATOM      4  O   UNL     1      26.362   1.156  51.674  1.00  0.00    -0.269 OA
ATOM      5  N   UNL     1      25.101  -0.106  53.187  1.00  0.00    -0.295 N 
ATOM      6  C   UNL     1      26.117  -0.896  53.827  1.00  0.00    +0.155 C 
ATOM      7  C   UNL     1      23.755  -0.158  53.564  1.00  0.00    +0.148 A 
ATOM      8  N   UNL     1      23.308  -0.961  54.533  1.00  0.00    -0.218 NA
ATOM      9  C   UNL     1      22.009  -0.802  54.786  1.00  0.00    +0.226 A 
ATOM     10  N   UNL     1      21.194   0.083  54.193  1.00  0.00    -0.218 NA
ATOM     11  C   UNL     1      21.680   0.872  53.206  1.00  0.00    +0.145 A 
ATOM     12  C   UNL     1      23.002   0.755  52.829  1.00  0.00    +0.073 A 
ENDROOT
BRANCH   1  13
ATOM     13  C   UNL     1      22.652   2.657  50.123  1.00  0.00    -0.025 A 
ATOM     14  C   UNL     1      21.017   4.424  49.773  1.00  0.00    -0.051 A 
ATOM     15  C   UNL     1      20.375   3.621  48.821  1.00  0.00    +0.003 A 
ATOM     16  C   UNL     1      22.158   3.933  50.422  1.00  0.00    +0.011 A 
ATOM     17  C   UNL     1      20.849   2.339  48.542  1.00  0.00    +0.001 A 
ATOM     18  C   UNL     1      21.983   1.856  49.193  1.00  0.00    +0.008 A 
ATOM     19  C   UNL     1      20.534   5.818  50.044  1.00  0.00    +0.044 C 
ENDBRANCH   1  13
BRANCH  11  20
ATOM     20  N   UNL     1      20.856   1.902  52.727  1.00  0.00    -0.324 N 
ATOM     21  H   UNL     1      21.369   2.647  52.283  1.00  0.00    +0.170 HD
BRANCH  20  22
ATOM     22  C   UNL     1      19.641   1.735  52.019  1.00  0.00    +0.131 A 
ATOM     23  C   UNL     1      19.426   0.505  51.393  1.00  0.00    +0.047 A 
ATOM     24  N   UNL     1      18.709   2.711  51.977  1.00  0.00    -0.239 NA
ATOM     25  C   UNL     1      18.238   0.279  50.701  1.00  0.00    +0.005 A 
ATOM     26  C   UNL     1      17.567   2.476  51.293  1.00  0.00    +0.113 A 
ATOM     27  C   UNL     1      17.286   1.286  50.647  1.00  0.00    +0.020 A 
ENDBRANCH  20  22
ENDBRANCH  11  20
TORSDOF 3
ENDMDL
MODEL 9
REMARK VINA RESULT:    -7.989      2.275      5.615
REMARK INTER + INTRA:         -10.269
REMARK INTER:                  -9.320
REMARK INTRA:                  -0.950
REMARK UNBOUND:                -0.879
REMARK SMILES Cc1cccc(C=C2C(=O)N(C)c3ncnc(Nc4ccccn4)c32)c1
REMARK SMILES IDX 7 1 8 2 9 3 10 4 11 5 12 6 13 7 14 8 15 9 16 10 17 11 25 12
REMARK SMILES IDX 6 13 2 14 3 15 26 16 4 17 5 18 1 19 18 20 19 22 20 23 24 24
REMARK SMILES IDX 21 25 23 26 22 27
REMARK H PARENT 18 21
ROOT
ATOM      1  C   UNL     1      20.683  -0.268  53.368  1.00  0.00    +0.023 C 
ATOM      2  C   UNL     1      22.024  -0.293  53.460  1.00  0.00    +0.055 C 
ATOM      3  C   UNL     1      22.596  -1.084  54.613  1.00  0.00    +0.260 C 
ATOM      4  O   UNL     1      21.982  -1.818  55.366  1.00  0.00    -0.269 OA
ATOM      5  N   UNL     1      23.937  -0.767  54.626  1.00  0.00    -0.295 N 
ATOM      6  C   UNL     1      24.910  -1.274  55.555  1.00  0.00    +0.155 C 
ATOM      7  C   UNL     1      24.276   0.075  53.562  1.00  0.00    +0.148 A 
ATOM      8  N   UNL     1      25.525   0.489  53.339  1.00  0.00    -0.218 NA
ATOM      9  C   UNL     1      25.644   1.222  52.232  1.00  0.00    +0.226 A 
ATOM     10  N   UNL     1      24.658   1.512  51.371  1.00  0.00    -0.218 NA
ATOM     11  C   UNL     1      23.400   1.086  51.636  1.00  0.00    +0.145 A 
ATOM     12  C   UNL     1      23.156   0.360  52.783  1.00  0.00    +0.073 A 
ENDROOT
BRANCH   1  13
ATOM     13  C   UNL     1      19.848   0.540  52.484  1.00  0.00    -0.025 A 
ATOM     14  C   UNL     1      18.171   0.718  50.730  1.00  0.00    -0.051 A 
ATOM     15  C   UNL     1      18.237   2.113  50.828  1.00  0.00    +0.003 A 
ATOM     16  C   UNL     1      18.983  -0.064  51.562  1.00  0.00    +0.011 A 
ATOM     17  C   UNL     1      19.117   2.719  51.725  1.00  0.00    +0.001 A 
ATOM     18  C   UNL     1      19.924   1.935  52.549  1.00  0.00    +0.008 A 
ATOM     19  C   UNL     1      17.196   0.065  49.796  1.00  0.00    +0.044 C 
ENDBRANCH   1  13
BRANCH  11  20
ATOM     20  N   UNL     1      22.429   1.253  50.637  1.00  0.00    -0.324 N 
ATOM     21  H   UNL     1      21.489   1.097  50.967  1.00  0.00    +0.170 HD
BRANCH  20  22
ATOM     22  C   UNL     1      22.384   2.302  49.687  1.00  0.00    +0.131 A 
ATOM     23  C   UNL     1      22.172   1.951  48.352  1.00  0.00    +0.047 A 
ATOM     24  N   UNL     1      22.506   3.595  50.057  1.00  0.00    -0.239 NA
ATOM     25  C   UNL     1      22.097   2.946  47.378  1.00  0.00    +0.005 A 
ATOM     26  C   UNL     1      22.440   4.544  49.098  1.00  0.00    +0.113 A 
ATOM     27  C   UNL     1      22.236   4.273  47.757  1.00  0.00    +0.020 A 
ENDBRANCH  20  22
ENDBRANCH  11  20
TORSDOF 3
ENDMDL
