MODEL 1
REMARK VINA RESULT:    -7.258      0.000      0.000
REMARK INTER + INTRA:          -8.741
REMARK INTER:                  -8.319
REMARK INTRA:                  -0.422
REMARK UNBOUND:                -0.422
REMARK SMILES Cc1cc(C)c(-c2ccc(O)c([N+](=O)[O-])c2)[nH]1
REMARK SMILES IDX 7 1 8 2 9 3 10 4 12 5 16 6 6 7 2 8 3 9 17 10 4 11 1 12 5 14
REMARK SMILES IDX 13 15 14 16 15 17 11 18
REMARK H PARENT 17 13 11 19
ROOT
ATOM      1  C   UNL     1      25.819   0.474  53.355  1.00  0.00    +0.005 A 
ATOM      2  C   UNL     1      26.296   1.788  53.428  1.00  0.00    +0.014 A 
ATOM      3  C   UNL     1      27.664   2.046  53.540  1.00  0.00    +0.054 A 
ATOM      4  C   UNL     1      28.576   0.993  53.581  1.00  0.00    +0.194 A 
ATOM      5  C   UNL     1      28.109  -0.325  53.505  1.00  0.00    +0.311 A 
ATOM      6  C   UNL     1      26.733  -0.586  53.393  1.00  0.00    +0.100 A 
ENDROOT
BRANCH   1   7
ATOM      7  C   UNL     1      24.386   0.213  53.241  1.00  0.00    +0.049 A 
ATOM      8  C   UNL     1      22.406  -0.746  53.757  1.00  0.00    +0.012 A 
ATOM      9  C   UNL     1      22.192   0.107  52.697  1.00  0.00    +0.026 A 
ATOM     10  N   UNL     1      23.737  -0.669  54.077  1.00  0.00    -0.358 N 
ATOM     11  C   UNL     1      23.434   0.719  52.365  1.00  0.00    -0.025 A 
ATOM     12  C   UNL     1      21.474  -1.630  54.498  1.00  0.00    +0.064 C 
ATOM     13  H   UNL     1      24.187  -1.202  54.810  1.00  0.00    +0.166 HD
ATOM     14  C   UNL     1      23.638   1.721  51.282  1.00  0.00    +0.047 C 
ENDBRANCH   1   7
BRANCH   5  15
ATOM     15  N   UNL     1      29.038  -1.456  53.536  1.00  0.00    +0.066 N 
ATOM     16  O   UNL     1      30.201  -1.245  53.909  1.00  0.00    -0.258 OA
ATOM     17  O   UNL     1      28.601  -2.566  53.194  1.00  0.00    -0.258 OA
ENDBRANCH   5  15
BRANCH   4  18
ATOM     18  O   UNL     1      29.888   1.364  53.695  1.00  0.00    -0.502 OA
ATOM     19  H   UNL     1      29.956   2.339  53.769  1.00  0.00    +0.293 HD
ENDBRANCH   4  18
TORSDOF 3
ENDMDL
MODEL 2
REMARK VINA RESULT:    -7.088      3.835      6.229
REMARK INTER + INTRA:          -8.546
REMARK INTER:                  -7.868
REMARK INTRA:                  -0.678
REMARK UNBOUND:                -0.422
REMARK SMILES Cc1cc(C)c(-c2ccc(O)c([N+](=O)[O-])c2)[nH]1
REMARK SMILES IDX 7 1 8 2 9 3 10 4 12 5 16 6 6 7 2 8 3 9 17 10 4 11 1 12 5 14
REMARK SMILES IDX 13 15 14 16 15 17 11 18
REMARK H PARENT 17 13 11 19
ROOT
ATOM      1  C   UNL     1      24.875  -0.480  54.130  1.00  0.00    +0.005 A 
ATOM      2  C   UNL     1      24.486  -1.242  55.238  1.00  0.00    +0.014 A 
ATOM      3  C   UNL     1      23.135  -1.495  55.491  1.00  0.00    +0.054 A 
ATOM      4  C   UNL     1      22.155  -0.990  54.640  1.00  0.00    +0.194 A 
ATOM      5  C   UNL     1      22.535  -0.229  53.527  1.00  0.00    +0.311 A 
ATOM      6  C   UNL     1      23.893   0.027  53.271  1.00  0.00    +0.100 A 
ENDROOT
BRANCH   1   7
ATOM      7  C   UNL     1      26.290  -0.218  53.875  1.00  0.00    +0.049 A 
ATOM      8  C   UNL     1      28.235   0.929  53.966  1.00  0.00    +0.012 A 
ATOM      9  C   UNL     1      28.458  -0.212  53.228  1.00  0.00    +0.026 A 
ATOM     10  N   UNL     1      26.920   0.911  54.353  1.00  0.00    -0.358 N 
ATOM     11  C   UNL     1      27.239  -0.944  53.166  1.00  0.00    -0.025 A 
ATOM     12  C   UNL     1      29.144   2.039  54.341  1.00  0.00    +0.064 C 
ATOM     13  H   UNL     1      26.467   1.634  54.895  1.00  0.00    +0.166 HD
ATOM     14  C   UNL     1      27.051  -2.249  52.473  1.00  0.00    +0.047 C 
ENDBRANCH   1   7
BRANCH   5  15
ATOM     15  N   UNL     1      21.533   0.311  52.607  1.00  0.00    +0.066 N 
ATOM     16  O   UNL     1      20.591   0.958  53.085  1.00  0.00    -0.258 OA
ATOM     17  O   UNL     1      21.692   0.093  51.395  1.00  0.00    -0.258 OA
ENDBRANCH   5  15
BRANCH   4  18
ATOM     18  O   UNL     1      20.868  -1.298  54.987  1.00  0.00    -0.502 OA
ATOM     19  H   UNL     1      20.798  -2.251  55.205  1.00  0.00    +0.293 HD
ENDBRANCH   4  18
TORSDOF 3
ENDMDL
MODEL 3
REMARK VINA RESULT:    -6.998      1.053      1.843
REMARK INTER + INTRA:          -8.443
REMARK INTER:                  -7.985
REMARK INTRA:                  -0.459
REMARK UNBOUND:                -0.422
REMARK SMILES Cc1cc(C)c(-c2ccc(O)c([N+](=O)[O-])c2)[nH]1
REMARK SMILES IDX 7 1 8 2 9 3 10 4 12 5 16 6 6 7 2 8 3 9 17 10 4 11 1 12 5 14
REMARK SMILES IDX 13 15 14 16 15 17 11 18
REMARK H PARENT 17 13 11 19
ROOT
ATOM      1  C   UNL     1      25.428   0.385  53.291  1.00  0.00    +0.005 A 
ATOM      2  C   UNL     1      25.889   1.693  53.486  1.00  0.00    +0.014 A 
ATOM      3  C   UNL     1      27.256   1.959  53.595  1.00  0.00    +0.054 A 
ATOM      4  C   UNL     1      28.182   0.921  53.512  1.00  0.00    +0.194 A 
ATOM      5  C   UNL     1      27.731  -0.390  53.313  1.00  0.00    +0.311 A 
ATOM      6  C   UNL     1      26.356  -0.659  53.204  1.00  0.00    +0.100 A 
ENDROOT
BRANCH   1   7
ATOM      7  C   UNL     1      23.996   0.115  53.181  1.00  0.00    +0.049 A 
ATOM      8  C   UNL     1      21.935   0.201  52.257  1.00  0.00    +0.012 A 
ATOM      9  C   UNL     1      21.837  -0.515  53.430  1.00  0.00    +0.026 A 
ATOM     10  N   UNL     1      23.247   0.573  52.118  1.00  0.00    -0.358 N 
ATOM     11  C   UNL     1      23.131  -0.577  54.020  1.00  0.00    -0.025 A 
ATOM     12  C   UNL     1      20.908   0.569  51.253  1.00  0.00    +0.064 C 
ATOM     13  H   UNL     1      23.613   1.126  51.355  1.00  0.00    +0.166 HD
ATOM     14  C   UNL     1      23.466  -1.274  55.292  1.00  0.00    +0.047 C 
ENDBRANCH   1   7
BRANCH   5  15
ATOM     15  N   UNL     1      28.675  -1.504  53.212  1.00  0.00    +0.066 N 
ATOM     16  O   UNL     1      29.885  -1.240  53.167  1.00  0.00    -0.258 OA
ATOM     17  O   UNL     1      28.205  -2.653  53.185  1.00  0.00    -0.258 OA
ENDBRANCH   5  15
BRANCH   4  18
ATOM     18  O   UNL     1      29.491   1.299  53.635  1.00  0.00    -0.502 OA
ATOM     19  H   UNL     1      29.704   1.468  54.577  1.00  0.00    +0.293 HD
ENDBRANCH   4  18
TORSDOF 3
ENDMDL
MODEL 4
REMARK VINA RESULT:    -6.960      2.811      4.843
REMARK INTER + INTRA:          -8.399
REMARK INTER:                  -7.751
REMARK INTRA:                  -0.648
REMARK UNBOUND:                -0.422
REMARK SMILES Cc1cc(C)c(-c2ccc(O)c([N+](=O)[O-])c2)[nH]1
REMARK SMILES IDX 7 1 8 2 9 3 10 4 12 5 16 6 6 7 2 8 3 9 17 10 4 11 1 12 5 14
REMARK SMILES IDX 13 15 14 16 15 17 11 18
REMARK H PARENT 17 13 11 19
ROOT
ATOM      1  C   UNL     1      22.836   0.769  52.576  1.00  0.00    +0.005 A 
ATOM      2  C   UNL     1      21.664   0.278  53.163  1.00  0.00    +0.014 A 
ATOM      3  C   UNL     1      21.723  -0.614  54.237  1.00  0.00    +0.054 A 
ATOM      4  C   UNL     1      22.956  -1.029  54.738  1.00  0.00    +0.194 A 
ATOM      5  C   UNL     1      24.134  -0.540  54.159  1.00  0.00    +0.311 A 
ATOM      6  C   UNL     1      24.076   0.357  53.079  1.00  0.00    +0.100 A 
ENDROOT
BRANCH   1   7
ATOM      7  C   UNL     1      22.765   1.700  51.451  1.00  0.00    +0.049 A 
ATOM      8  C   UNL     1      22.431   2.343  49.311  1.00  0.00    +0.012 A 
ATOM      9  C   UNL     1      22.805   3.458  50.028  1.00  0.00    +0.026 A 
ATOM     10  N   UNL     1      22.408   1.287  50.186  1.00  0.00    -0.358 N 
ATOM     11  C   UNL     1      23.016   3.064  51.380  1.00  0.00    -0.025 A 
ATOM     12  C   UNL     1      22.093   2.177  47.877  1.00  0.00    +0.064 C 
ATOM     13  H   UNL     1      22.183   0.334  49.935  1.00  0.00    +0.166 HD
ATOM     14  C   UNL     1      23.418   3.973  52.489  1.00  0.00    +0.047 C 
ENDBRANCH   1   7
BRANCH   5  15
ATOM     15  N   UNL     1      25.446  -0.947  54.665  1.00  0.00    +0.066 N 
ATOM     16  O   UNL     1      26.316  -1.263  53.842  1.00  0.00    -0.258 OA
ATOM     17  O   UNL     1      25.612  -0.942  55.896  1.00  0.00    -0.258 OA
ENDBRANCH   5  15
BRANCH   4  18
ATOM     18  O   UNL     1      22.892  -1.905  55.787  1.00  0.00    -0.502 OA
ATOM     19  H   UNL     1      23.653  -1.763  56.389  1.00  0.00    +0.293 HD
ENDBRANCH   4  18
TORSDOF 3
ENDMDL
MODEL 5
REMARK VINA RESULT:    -6.912      2.257      2.968
REMARK INTER + INTRA:          -8.344
REMARK INTER:                  -7.705
REMARK INTRA:                  -0.639
REMARK UNBOUND:                -0.422
REMARK SMILES Cc1cc(C)c(-c2ccc(O)c([N+](=O)[O-])c2)[nH]1
REMARK SMILES IDX 7 1 8 2 9 3 10 4 12 5 16 6 6 7 2 8 3 9 17 10 4 11 1 12 5 14
REMARK SMILES IDX 13 15 14 16 15 17 11 18
REMARK H PARENT 17 13 11 19
ROOT
ATOM      1  C   UNL     1      23.196   1.150  52.785  1.00  0.00    +0.005 A 
ATOM      2  C   UNL     1      23.562   2.501  52.760  1.00  0.00    +0.014 A 
ATOM      3  C   UNL     1      24.826   2.907  53.197  1.00  0.00    +0.054 A 
ATOM      4  C   UNL     1      25.742   1.966  53.664  1.00  0.00    +0.194 A 
ATOM      5  C   UNL     1      25.386   0.612  53.689  1.00  0.00    +0.311 A 
ATOM      6  C   UNL     1      24.115   0.203  53.251  1.00  0.00    +0.100 A 
ENDROOT
BRANCH   1   7
ATOM      7  C   UNL     1      21.870   0.736  52.330  1.00  0.00    +0.049 A 
ATOM      8  C   UNL     1      19.798  -0.148  52.513  1.00  0.00    +0.012 A 
ATOM      9  C   UNL     1      19.973   0.238  51.202  1.00  0.00    +0.026 A 
ATOM     10  N   UNL     1      20.953   0.162  53.184  1.00  0.00    -0.358 N 
ATOM     11  C   UNL     1      21.276   0.799  51.076  1.00  0.00    -0.025 A 
ATOM     12  C   UNL     1      18.645  -0.783  53.195  1.00  0.00    +0.064 C 
ATOM     13  H   UNL     1      21.120  -0.024  54.164  1.00  0.00    +0.166 HD
ATOM     14  C   UNL     1      21.858   1.353  49.823  1.00  0.00    +0.047 C 
ENDBRANCH   1   7
BRANCH   5  15
ATOM     15  N   UNL     1      26.326  -0.404  54.165  1.00  0.00    +0.066 N 
ATOM     16  O   UNL     1      26.581  -1.359  53.418  1.00  0.00    -0.258 OA
ATOM     17  O   UNL     1      26.821  -0.244  55.293  1.00  0.00    -0.258 OA
ENDBRANCH   5  15
BRANCH   4  18
ATOM     18  O   UNL     1      26.946   2.477  54.067  1.00  0.00    -0.502 OA
ATOM     19  H   UNL     1      27.389   2.925  53.315  1.00  0.00    +0.293 HD
ENDBRANCH   4  18
TORSDOF 3
ENDMDL
MODEL 6
REMARK VINA RESULT:    -6.866      2.852      5.077
REMARK INTER + INTRA:          -8.292
REMARK INTER:                  -7.866
REMARK INTRA:                  -0.426
REMARK UNBOUND:                -0.422
REMARK SMILES Cc1cc(C)c(-c2ccc(O)c([N+](=O)[O-])c2)[nH]1
REMARK SMILES IDX 7 1 8 2 9 3 10 4 12 5 16 6 6 7 2 8 3 9 17 10 4 11 1 12 5 14
REMARK SMILES IDX 13 15 14 16 15 17 11 18
REMARK H PARENT 17 13 11 19
ROOT
ATOM      1  C   UNL     1      23.011   0.835  52.160  1.00  0.00    +0.005 A 
ATOM      2  C   UNL     1      21.747   0.478  52.645  1.00  0.00    +0.014 A 
ATOM      3  C   UNL     1      21.619  -0.344  53.766  1.00  0.00    +0.054 A 
ATOM      4  C   UNL     1      22.753  -0.822  54.420  1.00  0.00    +0.194 A 
ATOM      5  C   UNL     1      24.022  -0.468  53.945  1.00  0.00    +0.311 A 
ATOM      6  C   UNL     1      24.152   0.360  52.816  1.00  0.00    +0.100 A 
ENDROOT
BRANCH   1   7
ATOM      7  C   UNL     1      23.136   1.694  50.984  1.00  0.00    +0.049 A 
ATOM      8  C   UNL     1      23.986   3.357  49.712  1.00  0.00    +0.012 A 
ATOM      9  C   UNL     1      22.955   2.777  49.006  1.00  0.00    +0.026 A 
ATOM     10  N   UNL     1      24.086   2.689  50.905  1.00  0.00    -0.358 N 
ATOM     11  C   UNL     1      22.413   1.726  49.797  1.00  0.00    -0.025 A 
ATOM     12  C   UNL     1      24.888   4.483  49.369  1.00  0.00    +0.064 C 
ATOM     13  H   UNL     1      24.748   2.909  51.637  1.00  0.00    +0.166 HD
ATOM     14  C   UNL     1      21.289   0.835  49.395  1.00  0.00    +0.047 C 
ENDBRANCH   1   7
BRANCH   5  15
ATOM     15  N   UNL     1      25.235  -0.943  54.611  1.00  0.00    +0.066 N 
ATOM     16  O   UNL     1      25.192  -1.134  55.834  1.00  0.00    -0.258 OA
ATOM     17  O   UNL     1      26.238  -1.137  53.905  1.00  0.00    -0.258 OA
ENDBRANCH   5  15
BRANCH   4  18
ATOM     18  O   UNL     1      22.507  -1.620  55.504  1.00  0.00    -0.502 OA
ATOM     19  H   UNL     1      23.276  -1.606  56.112  1.00  0.00    +0.293 HD
ENDBRANCH   4  18
TORSDOF 3
ENDMDL
MODEL 7
REMARK VINA RESULT:    -6.631      4.385      6.657
REMARK INTER + INTRA:          -8.021
REMARK INTER:                  -7.515
REMARK INTRA:                  -0.506
REMARK UNBOUND:                -0.422
REMARK SMILES Cc1cc(C)c(-c2ccc(O)c([N+](=O)[O-])c2)[nH]1
REMARK SMILES IDX 7 1 8 2 9 3 10 4 12 5 16 6 6 7 2 8 3 9 17 10 4 11 1 12 5 14
REMARK SMILES IDX 13 15 14 16 15 17 11 18
REMARK H PARENT 17 13 11 19
ROOT
ATOM      1  C   UNL     1      23.233  -0.140  53.448  1.00  0.00    +0.005 A 
ATOM      2  C   UNL     1      22.794  -0.911  54.530  1.00  0.00    +0.014 A 
ATOM      3  C   UNL     1      21.447  -1.258  54.660  1.00  0.00    +0.054 A 
ATOM      4  C   UNL     1      20.519  -0.838  53.709  1.00  0.00    +0.194 A 
ATOM      5  C   UNL     1      20.949  -0.069  52.620  1.00  0.00    +0.311 A 
ATOM      6  C   UNL     1      22.304   0.281  52.489  1.00  0.00    +0.100 A 
ENDROOT
BRANCH   1   7
ATOM      7  C   UNL     1      24.644   0.222  53.322  1.00  0.00    +0.049 A 
ATOM      8  C   UNL     1      26.871  -0.136  53.183  1.00  0.00    +0.012 A 
ATOM      9  C   UNL     1      26.663   1.225  53.138  1.00  0.00    +0.026 A 
ATOM     10  N   UNL     1      25.640  -0.731  53.292  1.00  0.00    -0.358 N 
ATOM     11  C   UNL     1      25.262   1.462  53.223  1.00  0.00    -0.025 A 
ATOM     12  C   UNL     1      28.121  -0.932  53.135  1.00  0.00    +0.064 C 
ATOM     13  H   UNL     1      25.483  -1.727  53.363  1.00  0.00    +0.166 HD
ATOM     14  C   UNL     1      24.611   2.800  53.194  1.00  0.00    +0.047 C 
ENDBRANCH   1   7
BRANCH   5  15
ATOM     15  N   UNL     1      20.005   0.382  51.597  1.00  0.00    +0.066 N 
ATOM     16  O   UNL     1      18.817   0.518  51.920  1.00  0.00    -0.258 OA
ATOM     17  O   UNL     1      20.455   0.612  50.463  1.00  0.00    -0.258 OA
ENDBRANCH   5  15
BRANCH   4  18
ATOM     18  O   UNL     1      19.230  -1.234  53.939  1.00  0.00    -0.502 OA
ATOM     19  H   UNL     1      18.609  -0.657  53.446  1.00  0.00    +0.293 HD
ENDBRANCH   4  18
TORSDOF 3
ENDMDL
MODEL 8
REMARK VINA RESULT:    -6.539      2.436      4.218
REMARK INTER + INTRA:          -7.916
REMARK INTER:                  -7.717
REMARK INTRA:                  -0.200
REMARK UNBOUND:                -0.422
REMARK SMILES Cc1cc(C)c(-c2ccc(O)c([N+](=O)[O-])c2)[nH]1
REMARK SMILES IDX 7 1 8 2 9 3 10 4 12 5 16 6 6 7 2 8 3 9 17 10 4 11 1 12 5 14
REMARK SMILES IDX 13 15 14 16 15 17 11 18
REMARK H PARENT 17 13 11 19
ROOT
ATOM      1  C   UNL     1      23.308   0.330  52.786  1.00  0.00    +0.005 A 
ATOM      2  C   UNL     1      22.549  -0.483  53.636  1.00  0.00    +0.014 A 
ATOM      3  C   UNL     1      23.134  -1.101  54.743  1.00  0.00    +0.054 A 
ATOM      4  C   UNL     1      24.488  -0.916  55.016  1.00  0.00    +0.194 A 
ATOM      5  C   UNL     1      25.255  -0.102  54.173  1.00  0.00    +0.311 A 
ATOM      6  C   UNL     1      24.668   0.521  53.059  1.00  0.00    +0.100 A 
ENDROOT
BRANCH   1   7
ATOM      7  C   UNL     1      22.688   0.971  51.627  1.00  0.00    +0.049 A 
ATOM      8  C   UNL     1      22.594   2.263  49.776  1.00  0.00    +0.012 A 
ATOM      9  C   UNL     1      21.331   1.761  49.998  1.00  0.00    +0.026 A 
ATOM     10  N   UNL     1      23.405   1.774  50.768  1.00  0.00    -0.358 N 
ATOM     11  C   UNL     1      21.379   0.942  51.162  1.00  0.00    -0.025 A 
ATOM     12  C   UNL     1      23.111   3.163  48.717  1.00  0.00    +0.064 C 
ATOM     13  H   UNL     1      24.388   1.990  50.870  1.00  0.00    +0.166 HD
ATOM     14  C   UNL     1      20.226   0.197  51.739  1.00  0.00    +0.047 C 
ENDBRANCH   1   7
BRANCH   5  15
ATOM     15  N   UNL     1      26.678   0.123  54.434  1.00  0.00    +0.066 N 
ATOM     16  O   UNL     1      27.043   1.269  54.730  1.00  0.00    -0.258 OA
ATOM     17  O   UNL     1      27.437  -0.856  54.351  1.00  0.00    -0.258 OA
ENDBRANCH   5  15
BRANCH   4  18
ATOM     18  O   UNL     1      24.953  -1.571  56.123  1.00  0.00    -0.502 OA
ATOM     19  H   UNL     1      24.428  -2.385  56.277  1.00  0.00    +0.293 HD
ENDBRANCH   4  18
TORSDOF 3
ENDMDL
MODEL 9
REMARK VINA RESULT:    -6.527      2.561      3.145
REMARK INTER + INTRA:          -7.903
REMARK INTER:                  -7.252
REMARK INTRA:                  -0.651
REMARK UNBOUND:                -0.422
REMARK SMILES Cc1cc(C)c(-c2ccc(O)c([N+](=O)[O-])c2)[nH]1
REMARK SMILES IDX 7 1 8 2 9 3 10 4 12 5 16 6 6 7 2 8 3 9 17 10 4 11 1 12 5 14
REMARK SMILES IDX 13 15 14 16 15 17 11 18
REMARK H PARENT 17 13 11 19
ROOT
ATOM      1  C   UNL     1      25.548   1.421  52.240  1.00  0.00    +0.005 A 
ATOM      2  C   UNL     1      25.754   2.076  53.460  1.00  0.00    +0.014 A 
ATOM      3  C   UNL     1      26.526   1.488  54.465  1.00  0.00    +0.054 A 
ATOM      4  C   UNL     1      27.102   0.235  54.265  1.00  0.00    +0.194 A 
ATOM      5  C   UNL     1      26.905  -0.427  53.046  1.00  0.00    +0.311 A 
ATOM      6  C   UNL     1      26.128   0.163  52.035  1.00  0.00    +0.100 A 
ENDROOT
BRANCH   1   7
ATOM      7  C   UNL     1      24.736   2.042  51.196  1.00  0.00    +0.049 A 
ATOM      8  C   UNL     1      22.868   2.456  49.993  1.00  0.00    +0.012 A 
ATOM      9  C   UNL     1      23.888   3.208  49.451  1.00  0.00    +0.026 A 
ATOM     10  N   UNL     1      23.395   1.759  51.049  1.00  0.00    -0.358 N 
ATOM     11  C   UNL     1      25.070   2.956  50.204  1.00  0.00    -0.025 A 
ATOM     12  C   UNL     1      21.441   2.331  49.608  1.00  0.00    +0.064 C 
ATOM     13  H   UNL     1      22.880   1.109  51.628  1.00  0.00    +0.166 HD
ATOM     14  C   UNL     1      26.398   3.581  49.956  1.00  0.00    +0.047 C 
ENDBRANCH   1   7
BRANCH   5  15
ATOM     15  N   UNL     1      27.502  -1.740  52.797  1.00  0.00    +0.066 N 
ATOM     16  O   UNL     1      28.580  -2.003  53.348  1.00  0.00    -0.258 OA
ATOM     17  O   UNL     1      26.885  -2.518  52.052  1.00  0.00    -0.258 OA
ENDBRANCH   5  15
BRANCH   4  18
ATOM     18  O   UNL     1      27.834  -0.243  55.317  1.00  0.00    -0.502 OA
ATOM     19  H   UNL     1      27.236  -0.529  56.040  1.00  0.00    +0.293 HD
ENDBRANCH   4  18
TORSDOF 3
ENDMDL
