REMARK SMILES Cc1cc(-c2cccc(Br)c2)[nH]c1-c1ccccc1
REMARK SMILES IDX 5 1 6 2 7 3 8 4 9 5 10 6 11 7 4 8 2 9 3 10 13 11 12 12 1 13
REMARK SMILES IDX 14 15 15 16 19 17 16 18 18 19 17 20
REMARK H PARENT 12 14
ROOT
ATOM      1  C   UNL     1      -2.632  -0.171  -0.176  1.00  0.00    -0.001 A 
ATOM      2  C   UNL     1      -3.577  -1.187   0.026  1.00  0.00    +0.010 A 
ATOM      3  C   UNL     1      -4.879  -1.064  -0.469  1.00  0.00    +0.002 A 
ATOM      4  C   UNL     1      -5.252   0.080  -1.171  1.00  0.00    +0.016 A 
ATOM      5  C   UNL     1      -4.321   1.096  -1.371  1.00  0.00    +0.018 A 
ATOM      6 Br   UNL     1      -4.826   2.655  -2.316  1.00  0.00    -0.051 Br
ATOM      7  C   UNL     1      -3.019   0.978  -0.879  1.00  0.00    +0.026 A 
ENDROOT
BRANCH   1   8
ATOM      8  C   UNL     1      -1.272  -0.316   0.347  1.00  0.00    +0.046 A 
ATOM      9  C   UNL     1       0.612  -0.810   1.538  1.00  0.00    -0.025 A 
ATOM     10  C   UNL     1      -0.806  -0.938   1.491  1.00  0.00    +0.032 A 
ATOM     11  C   UNL     1       0.991  -0.113   0.400  1.00  0.00    +0.049 A 
ATOM     12  N   UNL     1      -0.159   0.171  -0.301  1.00  0.00    -0.354 N 
ATOM     13  C   UNL     1       1.494  -1.325   2.619  1.00  0.00    +0.047 C 
ATOM     14  H   UNL     1      -0.173   0.638  -1.197  1.00  0.00    +0.167 HD
BRANCH  11  15
ATOM     15  C   UNL     1       2.307   0.289  -0.092  1.00  0.00    -0.002 A 
ATOM     16  C   UNL     1       3.330  -0.656  -0.238  1.00  0.00    +0.010 A 
ATOM     17  C   UNL     1       2.562   1.623  -0.432  1.00  0.00    +0.010 A 
ATOM     18  C   UNL     1       4.585  -0.274  -0.717  1.00  0.00    +0.001 A 
ATOM     19  C   UNL     1       3.818   2.006  -0.910  1.00  0.00    +0.001 A 
ATOM     20  C   UNL     1       4.828   1.056  -1.053  1.00  0.00    +0.000 A 
ENDBRANCH  11  15
ENDBRANCH   1   8
TORSDOF 2
