REMARK SMILES Cc1cc(C)c(N(C(=O)c2ccc(F)c(Cl)c2)c2ccccn2)[nH]1
REMARK SMILES IDX 8 1 9 2 7 3 6 4 2 5 3 6 24 7 4 8 1 9 5 11 18 12 19 13 23 14
REMARK SMILES IDX 20 15 22 16 21 17 10 18 11 19 17 20 12 21 15 22 13 23 16 24
REMARK SMILES IDX 14 25
REMARK H PARENT 24 10
ROOT
ATOM      1  C   UNL     1       0.813  -1.188   0.476  1.00  0.00    +0.265 C 
ATOM      2  O   UNL     1       0.645  -2.380   0.752  1.00  0.00    -0.268 OA
ENDROOT
BRANCH   1   3
ATOM      3  N   UNL     1      -0.172  -0.321  -0.038  1.00  0.00    -0.245 N 
BRANCH   3   4
ATOM      4  C   UNL     1      -1.491  -0.805  -0.183  1.00  0.00    +0.122 A 
ATOM      5  C   UNL     1      -3.230  -2.176   0.330  1.00  0.00    +0.014 A 
ATOM      6  C   UNL     1      -3.675  -1.274  -0.606  1.00  0.00    +0.028 A 
ATOM      7  N   UNL     1      -1.901  -1.920   0.525  1.00  0.00    -0.345 N 
ATOM      8  C   UNL     1      -2.577  -0.440  -0.982  1.00  0.00    -0.008 A 
ATOM      9  C   UNL     1      -3.921  -3.287   1.025  1.00  0.00    +0.064 C 
ATOM     10  H   UNL     1      -1.272  -2.469   1.102  1.00  0.00    +0.168 HD
ATOM     11  C   UNL     1      -2.660   0.560  -2.085  1.00  0.00    +0.048 C 
ENDBRANCH   3   4
BRANCH   3  12
ATOM     12  C   UNL     1       0.140   0.992  -0.494  1.00  0.00    +0.141 A 
ATOM     13  C   UNL     1      -0.695   2.063  -0.169  1.00  0.00    +0.048 A 
ATOM     14  N   UNL     1       1.304   1.190  -1.161  1.00  0.00    -0.238 NA
ATOM     15  C   UNL     1      -0.353   3.352  -0.575  1.00  0.00    +0.005 A 
ATOM     16  C   UNL     1       1.611   2.447  -1.551  1.00  0.00    +0.113 A 
ATOM     17  C   UNL     1       0.821   3.550  -1.287  1.00  0.00    +0.020 A 
ENDBRANCH   3  12
ENDBRANCH   1   3
BRANCH   1  18
ATOM     18  C   UNL     1       2.152  -0.657   0.818  1.00  0.00    +0.042 A 
ATOM     19  C   UNL     1       2.296   0.326   1.808  1.00  0.00    +0.017 A 
ATOM     20  C   UNL     1       3.273  -1.204   0.183  1.00  0.00    +0.037 A 
ATOM     21  C   UNL     1       3.569   0.793   2.132  1.00  0.00    +0.041 A 
ATOM     22  C   UNL     1       4.540  -0.728   0.511  1.00  0.00    +0.077 A 
ATOM     23  C   UNL     1       4.683   0.268   1.479  1.00  0.00    +0.141 A 
ATOM     24 Cl   UNL     1       5.922  -1.380  -0.283  1.00  0.00    -0.081 Cl
ATOM     25  F   UNL     1       5.896   0.737   1.805  1.00  0.00    -0.205 F 
ENDBRANCH   1  18
TORSDOF 4
