MODEL 1
REMARK VINA RESULT:    -8.982      0.000      0.000
REMARK INTER + INTRA:         -10.701
REMARK INTER:                 -10.295
REMARK INTRA:                  -0.406
REMARK UNBOUND:                -0.406
REMARK SMILES CN1C(=O)C(=C(N)C(C#N)=C(C#N)C#N)c2c(-c3ccccn3)ncnc21
REMARK SMILES IDX 1 1 2 2 3 3 4 4 5 5 6 6 16 7 17 8 24 9 25 10 26 11 27 12
REMARK SMILES IDX 7 13 8 16 9 17 11 18 10 19 12 20 14 21 13 22 15 23 18 24
REMARK SMILES IDX 19 25 23 26 20 27 22 28 21 29
REMARK H PARENT 7 14 7 15
ROOT
ATOM      1  C   UNL     1      23.161  -1.604  55.767  1.00  0.00    +0.155 C 
ATOM      2  N   UNL     1      23.615  -0.811  54.655  1.00  0.00    -0.295 N 
ATOM      3  C   UNL     1      24.916  -0.447  54.409  1.00  0.00    +0.262 C 
ATOM      4  O   UNL     1      25.910  -0.737  55.052  1.00  0.00    -0.269 OA
ATOM      5  C   UNL     1      24.869   0.374  53.132  1.00  0.00    +0.078 C 
ATOM      6  C   UNL     1      26.012   0.723  52.492  1.00  0.00    +0.065 C 
ATOM      7  C   UNL     1      23.433   0.538  52.807  1.00  0.00    +0.060 A 
ATOM      8  C   UNL     1      22.621   1.299  51.994  1.00  0.00    +0.102 A 
ATOM      9  N   UNL     1      21.258   1.202  52.065  1.00  0.00    -0.234 NA
ATOM     10  C   UNL     1      20.725   0.355  52.956  1.00  0.00    +0.225 A 
ATOM     11  N   UNL     1      21.410  -0.370  53.835  1.00  0.00    -0.218 NA
ATOM     12  C   UNL     1      22.738  -0.233  53.735  1.00  0.00    +0.147 A 
ENDROOT
BRANCH   6  13
ATOM     13  N   UNL     1      26.100   1.232  51.213  1.00  0.00    -0.397 N 
ATOM     14  H   UNL     1      26.304   0.540  50.482  1.00  0.00    +0.156 HD
ATOM     15  H   UNL     1      25.300   1.794  50.926  1.00  0.00    +0.156 HD
ENDBRANCH   6  13
BRANCH   6  16
ATOM     16  C   UNL     1      27.342   0.480  53.086  1.00  0.00    +0.104 C 
ATOM     17  C   UNL     1      27.952   1.616  53.708  1.00  0.00    +0.104 C 
ATOM     18  C   UNL     1      27.968  -0.718  53.036  1.00  0.00    +0.149 C 
ATOM     19  N   UNL     1      28.436   2.561  54.176  1.00  0.00    -0.192 NA
ATOM     20  C   UNL     1      29.260  -0.909  53.602  1.00  0.00    +0.112 C 
ATOM     21  C   UNL     1      27.352  -1.843  52.418  1.00  0.00    +0.112 C 
ATOM     22  N   UNL     1      30.321  -1.058  54.045  1.00  0.00    -0.192 NA
ATOM     23  N   UNL     1      26.840  -2.761  51.924  1.00  0.00    -0.192 NA
ENDBRANCH   6  16
BRANCH   8  24
ATOM     24  C   UNL     1      23.057   2.340  51.055  1.00  0.00    +0.089 A 
ATOM     25  C   UNL     1      22.867   2.196  49.679  1.00  0.00    +0.031 A 
ATOM     26  N   UNL     1      23.727   3.400  51.579  1.00  0.00    -0.255 NA
ATOM     27  C   UNL     1      23.381   3.159  48.814  1.00  0.00    +0.004 A 
ATOM     28  C   UNL     1      24.248   4.302  50.709  1.00  0.00    +0.112 A 
ATOM     29  C   UNL     1      24.092   4.230  49.336  1.00  0.00    +0.020 A 
ENDBRANCH   8  24
TORSDOF 3
ENDMDL
MODEL 2
REMARK VINA RESULT:    -8.359      1.018      2.338
REMARK INTER + INTRA:          -9.986
REMARK INTER:                  -9.626
REMARK INTRA:                  -0.360
REMARK UNBOUND:                -0.406
REMARK SMILES CN1C(=O)C(=C(N)C(C#N)=C(C#N)C#N)c2c(-c3ccccn3)ncnc21
REMARK SMILES IDX 1 1 2 2 3 3 4 4 5 5 6 6 16 7 17 8 24 9 25 10 26 11 27 12
REMARK SMILES IDX 7 13 8 16 9 17 11 18 10 19 12 20 14 21 13 22 15 23 18 24
REMARK SMILES IDX 19 25 23 26 20 27 22 28 21 29
REMARK H PARENT 7 14 7 15
ROOT
ATOM      1  C   UNL     1      22.293  -1.246  55.090  1.00  0.00    +0.155 C 
ATOM      2  N   UNL     1      23.013  -0.449  54.132  1.00  0.00    -0.295 N 
ATOM      3  C   UNL     1      24.364  -0.509  53.894  1.00  0.00    +0.262 C 
ATOM      4  O   UNL     1      25.186  -1.242  54.415  1.00  0.00    -0.269 OA
ATOM      5  C   UNL     1      24.627   0.517  52.805  1.00  0.00    +0.078 C 
ATOM      6  C   UNL     1      25.831   0.577  52.187  1.00  0.00    +0.065 C 
ATOM      7  C   UNL     1      23.341   1.222  52.593  1.00  0.00    +0.060 A 
ATOM      8  C   UNL     1      22.855   2.360  51.987  1.00  0.00    +0.102 A 
ATOM      9  N   UNL     1      21.542   2.722  52.108  1.00  0.00    -0.234 NA
ATOM     10  C   UNL     1      20.733   1.947  52.843  1.00  0.00    +0.225 A 
ATOM     11  N   UNL     1      21.110   0.871  53.528  1.00  0.00    -0.218 NA
ATOM     12  C   UNL     1      22.406   0.564  53.388  1.00  0.00    +0.147 A 
ENDROOT
BRANCH   6  13
ATOM     13  N   UNL     1      26.113   1.270  51.028  1.00  0.00    -0.397 N 
ATOM     14  H   UNL     1      27.095   1.236  50.727  1.00  0.00    +0.156 HD
ATOM     15  H   UNL     1      25.514   1.033  50.239  1.00  0.00    +0.156 HD
ENDBRANCH   6  13
BRANCH   6  16
ATOM     16  C   UNL     1      26.986  -0.219  52.652  1.00  0.00    +0.104 C 
ATOM     17  C   UNL     1      26.972  -1.599  52.270  1.00  0.00    +0.104 C 
ATOM     18  C   UNL     1      27.984   0.296  53.406  1.00  0.00    +0.149 C 
ATOM     19  N   UNL     1      26.919  -2.718  51.974  1.00  0.00    -0.192 NA
ATOM     20  C   UNL     1      29.071  -0.507  53.852  1.00  0.00    +0.112 C 
ATOM     21  C   UNL     1      27.991   1.670  53.778  1.00  0.00    +0.112 C 
ATOM     22  N   UNL     1      29.945  -1.168  54.234  1.00  0.00    -0.192 NA
ATOM     23  N   UNL     1      27.998   2.794  54.068  1.00  0.00    -0.192 NA
ENDBRANCH   6  16
BRANCH   8  24
ATOM     24  C   UNL     1      23.641   3.356  51.246  1.00  0.00    +0.089 A 
ATOM     25  C   UNL     1      23.895   4.619  51.785  1.00  0.00    +0.031 A 
ATOM     26  N   UNL     1      24.029   3.023  49.988  1.00  0.00    -0.255 NA
ATOM     27  C   UNL     1      24.561   5.570  51.014  1.00  0.00    +0.004 A 
ATOM     28  C   UNL     1      24.641   3.981  49.247  1.00  0.00    +0.112 A 
ATOM     29  C   UNL     1      24.935   5.249  49.716  1.00  0.00    +0.020 A 
ENDBRANCH   8  24
TORSDOF 3
ENDMDL
MODEL 3
REMARK VINA RESULT:    -8.049      2.442      6.233
REMARK INTER + INTRA:          -9.631
REMARK INTER:                  -9.105
REMARK INTRA:                  -0.527
REMARK UNBOUND:                -0.406
REMARK SMILES CN1C(=O)C(=C(N)C(C#N)=C(C#N)C#N)c2c(-c3ccccn3)ncnc21
REMARK SMILES IDX 1 1 2 2 3 3 4 4 5 5 6 6 16 7 17 8 24 9 25 10 26 11 27 12
REMARK SMILES IDX 7 13 8 16 9 17 11 18 10 19 12 20 14 21 13 22 15 23 18 24
REMARK SMILES IDX 19 25 23 26 20 27 22 28 21 29
REMARK H PARENT 7 14 7 15
ROOT
ATOM      1  C   UNL     1      18.968  -0.693  53.152  1.00  0.00    +0.155 C 
ATOM      2  N   UNL     1      20.286  -0.173  52.901  1.00  0.00    -0.295 N 
ATOM      3  C   UNL     1      20.652   0.600  51.827  1.00  0.00    +0.262 C 
ATOM      4  O   UNL     1      19.947   1.001  50.918  1.00  0.00    -0.269 OA
ATOM      5  C   UNL     1      22.130   0.887  52.023  1.00  0.00    +0.078 C 
ATOM      6  C   UNL     1      22.767   1.797  51.245  1.00  0.00    +0.065 C 
ATOM      7  C   UNL     1      22.547   0.089  53.199  1.00  0.00    +0.060 A 
ATOM      8  C   UNL     1      23.699  -0.343  53.820  1.00  0.00    +0.102 A 
ATOM      9  N   UNL     1      23.650  -1.191  54.892  1.00  0.00    -0.234 NA
ATOM     10  C   UNL     1      22.450  -1.605  55.323  1.00  0.00    +0.225 A 
ATOM     11  N   UNL     1      21.284  -1.310  54.756  1.00  0.00    -0.218 NA
ATOM     12  C   UNL     1      21.384  -0.488  53.704  1.00  0.00    +0.147 A 
ENDROOT
BRANCH   6  13
ATOM     13  N   UNL     1      24.016   2.333  51.483  1.00  0.00    -0.397 N 
ATOM     14  H   UNL     1      24.263   2.440  52.473  1.00  0.00    +0.156 HD
ATOM     15  H   UNL     1      24.777   1.859  50.997  1.00  0.00    +0.156 HD
ENDBRANCH   6  13
BRANCH   6  16
ATOM     16  C   UNL     1      22.112   2.414  50.074  1.00  0.00    +0.104 C 
ATOM     17  C   UNL     1      22.046   1.590  48.904  1.00  0.00    +0.104 C 
ATOM     18  C   UNL     1      21.624   3.675  50.077  1.00  0.00    +0.149 C 
ATOM     19  N   UNL     1      22.034   0.913  47.963  1.00  0.00    -0.192 NA
ATOM     20  C   UNL     1      21.017   4.244  48.922  1.00  0.00    +0.112 C 
ATOM     21  C   UNL     1      21.692   4.486  51.246  1.00  0.00    +0.112 C 
ATOM     22  N   UNL     1      20.542   4.713  47.973  1.00  0.00    -0.192 NA
ATOM     23  N   UNL     1      21.739   5.139  52.205  1.00  0.00    -0.192 NA
ENDBRANCH   6  16
BRANCH   8  24
ATOM     24  C   UNL     1      25.076  -0.062  53.395  1.00  0.00    +0.089 A 
ATOM     25  C   UNL     1      25.863  -1.050  52.800  1.00  0.00    +0.031 A 
ATOM     26  N   UNL     1      25.571   1.170  53.687  1.00  0.00    -0.255 NA
ATOM     27  C   UNL     1      27.195  -0.773  52.498  1.00  0.00    +0.004 A 
ATOM     28  C   UNL     1      26.881   1.397  53.416  1.00  0.00    +0.112 A 
ATOM     29  C   UNL     1      27.719   0.471  52.819  1.00  0.00    +0.020 A 
ENDBRANCH   8  24
TORSDOF 3
ENDMDL
MODEL 4
REMARK VINA RESULT:    -7.891      1.667      4.170
REMARK INTER + INTRA:          -9.450
REMARK INTER:                  -9.039
REMARK INTRA:                  -0.411
REMARK UNBOUND:                -0.406
REMARK SMILES CN1C(=O)C(=C(N)C(C#N)=C(C#N)C#N)c2c(-c3ccccn3)ncnc21
REMARK SMILES IDX 1 1 2 2 3 3 4 4 5 5 6 6 16 7 17 8 24 9 25 10 26 11 27 12
REMARK SMILES IDX 7 13 8 16 9 17 11 18 10 19 12 20 14 21 13 22 15 23 18 24
REMARK SMILES IDX 19 25 23 26 20 27 22 28 21 29
REMARK H PARENT 7 14 7 15
ROOT
ATOM      1  C   UNL     1      26.003   4.114  49.373  1.00  0.00    +0.155 C 
ATOM      2  N   UNL     1      25.522   3.265  50.430  1.00  0.00    -0.295 N 
ATOM      3  C   UNL     1      26.298   2.466  51.233  1.00  0.00    +0.262 C 
ATOM      4  O   UNL     1      27.510   2.343  51.221  1.00  0.00    -0.269 OA
ATOM      5  C   UNL     1      25.326   1.780  52.178  1.00  0.00    +0.078 C 
ATOM      6  C   UNL     1      25.779   1.071  53.241  1.00  0.00    +0.065 C 
ATOM      7  C   UNL     1      23.972   2.165  51.718  1.00  0.00    +0.060 A 
ATOM      8  C   UNL     1      22.657   1.792  51.895  1.00  0.00    +0.102 A 
ATOM      9  N   UNL     1      21.652   2.373  51.172  1.00  0.00    -0.234 NA
ATOM     10  C   UNL     1      21.976   3.312  50.272  1.00  0.00    +0.225 A 
ATOM     11  N   UNL     1      23.213   3.695  49.970  1.00  0.00    -0.218 NA
ATOM     12  C   UNL     1      24.162   3.091  50.695  1.00  0.00    +0.147 A 
ENDROOT
BRANCH   6  13
ATOM     13  N   UNL     1      25.018   0.628  54.303  1.00  0.00    -0.397 N 
ATOM     14  H   UNL     1      25.419   0.806  55.231  1.00  0.00    +0.156 HD
ATOM     15  H   UNL     1      24.050   0.948  54.290  1.00  0.00    +0.156 HD
ENDBRANCH   6  13
BRANCH   6  16
ATOM     16  C   UNL     1      27.216   0.786  53.432  1.00  0.00    +0.104 C 
ATOM     17  C   UNL     1      27.991   1.869  53.956  1.00  0.00    +0.104 C 
ATOM     18  C   UNL     1      27.783  -0.402  53.117  1.00  0.00    +0.149 C 
ATOM     19  N   UNL     1      28.600   2.773  54.352  1.00  0.00    -0.192 NA
ATOM     20  C   UNL     1      29.176  -0.633  53.297  1.00  0.00    +0.112 C 
ATOM     21  C   UNL     1      27.003  -1.474  52.599  1.00  0.00    +0.112 C 
ATOM     22  N   UNL     1      30.315  -0.814  53.422  1.00  0.00    -0.192 NA
ATOM     23  N   UNL     1      26.361  -2.349  52.188  1.00  0.00    -0.192 NA
ENDBRANCH   6  16
BRANCH   8  24
ATOM     24  C   UNL     1      22.167   0.710  52.759  1.00  0.00    +0.089 A 
ATOM     25  C   UNL     1      21.262   0.965  53.791  1.00  0.00    +0.031 A 
ATOM     26  N   UNL     1      22.701  -0.524  52.563  1.00  0.00    -0.255 NA
ATOM     27  C   UNL     1      20.895  -0.069  54.650  1.00  0.00    +0.004 A 
ATOM     28  C   UNL     1      22.354  -1.502  53.438  1.00  0.00    +0.112 A 
ATOM     29  C   UNL     1      21.457  -1.326  54.476  1.00  0.00    +0.020 A 
ENDBRANCH   8  24
TORSDOF 3
ENDMDL
MODEL 5
REMARK VINA RESULT:    -7.750      3.225      6.596
REMARK INTER + INTRA:          -9.288
REMARK INTER:                  -8.650
REMARK INTRA:                  -0.638
REMARK UNBOUND:                -0.406
REMARK SMILES CN1C(=O)C(=C(N)C(C#N)=C(C#N)C#N)c2c(-c3ccccn3)ncnc21
REMARK SMILES IDX 1 1 2 2 3 3 4 4 5 5 6 6 16 7 17 8 24 9 25 10 26 11 27 12
REMARK SMILES IDX 7 13 8 16 9 17 11 18 10 19 12 20 14 21 13 22 15 23 18 24
REMARK SMILES IDX 19 25 23 26 20 27 22 28 21 29
REMARK H PARENT 7 14 7 15
ROOT
ATOM      1  C   UNL     1      18.426  -1.720  53.568  1.00  0.00    +0.155 C 
ATOM      2  N   UNL     1      19.456  -0.772  53.236  1.00  0.00    -0.295 N 
ATOM      3  C   UNL     1      19.364   0.209  52.280  1.00  0.00    +0.262 C 
ATOM      4  O   UNL     1      18.413   0.474  51.567  1.00  0.00    -0.269 OA
ATOM      5  C   UNL     1      20.700   0.933  52.318  1.00  0.00    +0.078 C 
ATOM      6  C   UNL     1      20.877   2.092  51.638  1.00  0.00    +0.065 C 
ATOM      7  C   UNL     1      21.550   0.168  53.259  1.00  0.00    +0.060 A 
ATOM      8  C   UNL     1      22.874   0.056  53.624  1.00  0.00    +0.102 A 
ATOM      9  N   UNL     1      23.285  -0.892  54.520  1.00  0.00    -0.234 NA
ATOM     10  C   UNL     1      22.367  -1.725  55.030  1.00  0.00    +0.225 A 
ATOM     11  N   UNL     1      21.081  -1.754  54.694  1.00  0.00    -0.218 NA
ATOM     12  C   UNL     1      20.730  -0.816  53.807  1.00  0.00    +0.147 A 
ENDROOT
BRANCH   6  13
ATOM     13  N   UNL     1      21.930   2.969  51.793  1.00  0.00    -0.397 N 
ATOM     14  H   UNL     1      22.831   2.637  51.429  1.00  0.00    +0.156 HD
ATOM     15  H   UNL     1      21.753   3.908  51.440  1.00  0.00    +0.156 HD
ENDBRANCH   6  13
BRANCH   6  16
ATOM     16  C   UNL     1      19.858   2.610  50.702  1.00  0.00    +0.104 C 
ATOM     17  C   UNL     1      18.836   3.417  51.295  1.00  0.00    +0.104 C 
ATOM     18  C   UNL     1      19.861   2.333  49.378  1.00  0.00    +0.149 C 
ATOM     19  N   UNL     1      18.003   4.041  51.806  1.00  0.00    -0.192 NA
ATOM     20  C   UNL     1      18.850   2.834  48.509  1.00  0.00    +0.112 C 
ATOM     21  C   UNL     1      20.884   1.531  48.796  1.00  0.00    +0.112 C 
ATOM     22  N   UNL     1      18.014   3.224  47.806  1.00  0.00    -0.192 NA
ATOM     23  N   UNL     1      21.727   0.887  48.326  1.00  0.00    -0.192 NA
ENDBRANCH   6  16
BRANCH   8  24
ATOM     24  C   UNL     1      23.998   0.822  53.070  1.00  0.00    +0.089 A 
ATOM     25  C   UNL     1      24.942   0.217  52.238  1.00  0.00    +0.031 A 
ATOM     26  N   UNL     1      24.123   2.113  53.475  1.00  0.00    -0.255 NA
ATOM     27  C   UNL     1      26.046   0.951  51.810  1.00  0.00    +0.004 A 
ATOM     28  C   UNL     1      25.228   2.791  53.073  1.00  0.00    +0.112 A 
ATOM     29  C   UNL     1      26.199   2.261  52.241  1.00  0.00    +0.020 A 
ENDBRANCH   8  24
TORSDOF 3
ENDMDL
MODEL 6
REMARK VINA RESULT:    -7.269      2.269      5.794
REMARK INTER + INTRA:          -8.737
REMARK INTER:                  -8.424
REMARK INTRA:                  -0.313
REMARK UNBOUND:                -0.406
REMARK SMILES CN1C(=O)C(=C(N)C(C#N)=C(C#N)C#N)c2c(-c3ccccn3)ncnc21
REMARK SMILES IDX 1 1 2 2 3 3 4 4 5 5 6 6 16 7 17 8 24 9 25 10 26 11 27 12
REMARK SMILES IDX 7 13 8 16 9 17 11 18 10 19 12 20 14 21 13 22 15 23 18 24
REMARK SMILES IDX 19 25 23 26 20 27 22 28 21 29
REMARK H PARENT 7 14 7 15
ROOT
ATOM      1  C   UNL     1      20.757   0.823  50.618  1.00  0.00    +0.155 C 
ATOM      2  N   UNL     1      22.029   1.040  51.255  1.00  0.00    -0.295 N 
ATOM      3  C   UNL     1      22.986   1.938  50.850  1.00  0.00    +0.262 C 
ATOM      4  O   UNL     1      22.934   2.716  49.914  1.00  0.00    -0.269 OA
ATOM      5  C   UNL     1      24.127   1.785  51.841  1.00  0.00    +0.078 C 
ATOM      6  C   UNL     1      25.154   2.669  51.853  1.00  0.00    +0.065 C 
ATOM      7  C   UNL     1      23.761   0.641  52.708  1.00  0.00    +0.060 A 
ATOM      8  C   UNL     1      24.341  -0.208  53.626  1.00  0.00    +0.102 A 
ATOM      9  N   UNL     1      23.643  -1.255  54.162  1.00  0.00    -0.234 NA
ATOM     10  C   UNL     1      22.378  -1.447  53.764  1.00  0.00    +0.225 A 
ATOM     11  N   UNL     1      21.746  -0.736  52.834  1.00  0.00    -0.218 NA
ATOM     12  C   UNL     1      22.473   0.268  52.331  1.00  0.00    +0.147 A 
ENDROOT
BRANCH   6  13
ATOM     13  N   UNL     1      26.100   2.796  52.849  1.00  0.00    -0.397 N 
ATOM     14  H   UNL     1      25.725   2.992  53.785  1.00  0.00    +0.156 HD
ATOM     15  H   UNL     1      26.758   2.019  52.909  1.00  0.00    +0.156 HD
ENDBRANCH   6  13
BRANCH   6  16
ATOM     16  C   UNL     1      25.306   3.702  50.809  1.00  0.00    +0.104 C 
ATOM     17  C   UNL     1      26.276   3.412  49.796  1.00  0.00    +0.104 C 
ATOM     18  C   UNL     1      24.604   4.858  50.804  1.00  0.00    +0.149 C 
ATOM     19  N   UNL     1      27.090   3.166  49.008  1.00  0.00    -0.192 NA
ATOM     20  C   UNL     1      24.792   5.840  49.791  1.00  0.00    +0.112 C 
ATOM     21  C   UNL     1      23.639   5.137  51.813  1.00  0.00    +0.112 C 
ATOM     22  N   UNL     1      24.962   6.649  48.977  1.00  0.00    -0.192 NA
ATOM     23  N   UNL     1      22.845   5.354  52.632  1.00  0.00    -0.192 NA
ENDBRANCH   6  16
BRANCH   8  24
ATOM     24  C   UNL     1      25.740  -0.186  54.071  1.00  0.00    +0.089 A 
ATOM     25  C   UNL     1      26.072   0.112  55.394  1.00  0.00    +0.031 A 
ATOM     26  N   UNL     1      26.691  -0.381  53.120  1.00  0.00    -0.255 NA
ATOM     27  C   UNL     1      27.413   0.218  55.755  1.00  0.00    +0.004 A 
ATOM     28  C   UNL     1      27.988  -0.235  53.494  1.00  0.00    +0.112 A 
ATOM     29  C   UNL     1      28.392   0.049  54.786  1.00  0.00    +0.020 A 
ENDBRANCH   8  24
TORSDOF 3
ENDMDL
MODEL 7
REMARK VINA RESULT:    -7.237      1.656      4.558
REMARK INTER + INTRA:          -8.700
REMARK INTER:                  -8.655
REMARK INTRA:                  -0.045
REMARK UNBOUND:                -0.406
REMARK SMILES CN1C(=O)C(=C(N)C(C#N)=C(C#N)C#N)c2c(-c3ccccn3)ncnc21
REMARK SMILES IDX 1 1 2 2 3 3 4 4 5 5 6 6 16 7 17 8 24 9 25 10 26 11 27 12
REMARK SMILES IDX 7 13 8 16 9 17 11 18 10 19 12 20 14 21 13 22 15 23 18 24
REMARK SMILES IDX 19 25 23 26 20 27 22 28 21 29
REMARK H PARENT 7 14 7 15
ROOT
ATOM      1  C   UNL     1      26.140   3.757  49.548  1.00  0.00    +0.155 C 
ATOM      2  N   UNL     1      25.560   2.889  50.538  1.00  0.00    -0.295 N 
ATOM      3  C   UNL     1      26.188   1.825  51.138  1.00  0.00    +0.262 C 
ATOM      4  O   UNL     1      27.330   1.437  50.970  1.00  0.00    -0.269 OA
ATOM      5  C   UNL     1      25.163   1.242  52.095  1.00  0.00    +0.078 C 
ATOM      6  C   UNL     1      25.521   0.299  53.000  1.00  0.00    +0.065 C 
ATOM      7  C   UNL     1      23.906   1.985  51.848  1.00  0.00    +0.060 A 
ATOM      8  C   UNL     1      22.560   1.894  52.128  1.00  0.00    +0.102 A 
ATOM      9  N   UNL     1      21.665   2.788  51.606  1.00  0.00    -0.234 NA
ATOM     10  C   UNL     1      22.127   3.754  50.800  1.00  0.00    +0.225 A 
ATOM     11  N   UNL     1      23.390   3.891  50.407  1.00  0.00    -0.218 NA
ATOM     12  C   UNL     1      24.225   2.987  50.934  1.00  0.00    +0.147 A 
ENDROOT
BRANCH   6  13
ATOM     13  N   UNL     1      24.768  -0.116  54.079  1.00  0.00    -0.397 N 
ATOM     14  H   UNL     1      23.764   0.089  54.015  1.00  0.00    +0.156 HD
ATOM     15  H   UNL     1      24.893  -1.097  54.329  1.00  0.00    +0.156 HD
ENDBRANCH   6  13
BRANCH   6  16
ATOM     16  C   UNL     1      26.859  -0.327  52.985  1.00  0.00    +0.104 C 
ATOM     17  C   UNL     1      26.910  -1.650  52.438  1.00  0.00    +0.104 C 
ATOM     18  C   UNL     1      27.967   0.280  53.469  1.00  0.00    +0.149 C 
ATOM     19  N   UNL     1      26.917  -2.731  52.019  1.00  0.00    -0.192 NA
ATOM     20  C   UNL     1      29.236  -0.364  53.455  1.00  0.00    +0.112 C 
ATOM     21  C   UNL     1      27.907   1.596  54.008  1.00  0.00    +0.112 C 
ATOM     22  N   UNL     1      30.266  -0.898  53.463  1.00  0.00    -0.192 NA
ATOM     23  N   UNL     1      27.855   2.674  54.436  1.00  0.00    -0.192 NA
ENDBRANCH   6  16
BRANCH   8  24
ATOM     24  C   UNL     1      21.900   0.833  52.900  1.00  0.00    +0.089 A 
ATOM     25  C   UNL     1      21.129   1.132  54.025  1.00  0.00    +0.031 A 
ATOM     26  N   UNL     1      22.148  -0.448  52.521  1.00  0.00    -0.255 NA
ATOM     27  C   UNL     1      20.599   0.093  54.786  1.00  0.00    +0.004 A 
ATOM     28  C   UNL     1      21.650  -1.439  53.304  1.00  0.00    +0.112 A 
ATOM     29  C   UNL     1      20.870  -1.219  54.425  1.00  0.00    +0.020 A 
ENDBRANCH   8  24
TORSDOF 3
ENDMDL
MODEL 8
REMARK VINA RESULT:    -7.070      2.263      5.585
REMARK INTER + INTRA:          -8.509
REMARK INTER:                  -8.326
REMARK INTRA:                  -0.183
REMARK UNBOUND:                -0.406
REMARK SMILES CN1C(=O)C(=C(N)C(C#N)=C(C#N)C#N)c2c(-c3ccccn3)ncnc21
REMARK SMILES IDX 1 1 2 2 3 3 4 4 5 5 6 6 16 7 17 8 24 9 25 10 26 11 27 12
REMARK SMILES IDX 7 13 8 16 9 17 11 18 10 19 12 20 14 21 13 22 15 23 18 24
REMARK SMILES IDX 19 25 23 26 20 27 22 28 21 29
REMARK H PARENT 7 14 7 15
ROOT
ATOM      1  C   UNL     1      20.013   0.904  51.132  1.00  0.00    +0.155 C 
ATOM      2  N   UNL     1      21.334   1.165  51.639  1.00  0.00    -0.295 N 
ATOM      3  C   UNL     1      22.155   2.193  51.247  1.00  0.00    +0.262 C 
ATOM      4  O   UNL     1      21.921   3.071  50.434  1.00  0.00    -0.269 OA
ATOM      5  C   UNL     1      23.422   2.033  52.069  1.00  0.00    +0.078 C 
ATOM      6  C   UNL     1      24.368   3.004  52.078  1.00  0.00    +0.065 C 
ATOM      7  C   UNL     1      23.264   0.763  52.815  1.00  0.00    +0.060 A 
ATOM      8  C   UNL     1      24.023  -0.130  53.539  1.00  0.00    +0.102 A 
ATOM      9  N   UNL     1      23.487  -1.297  54.011  1.00  0.00    -0.234 NA
ATOM     10  C   UNL     1      22.201  -1.561  53.741  1.00  0.00    +0.225 A 
ATOM     11  N   UNL     1      21.400  -0.807  52.993  1.00  0.00    -0.218 NA
ATOM     12  C   UNL     1      21.973   0.316  52.545  1.00  0.00    +0.147 A 
ENDROOT
BRANCH   6  13
ATOM     13  N   UNL     1      25.420   3.101  52.965  1.00  0.00    -0.397 N 
ATOM     14  H   UNL     1      25.627   4.052  53.293  1.00  0.00    +0.156 HD
ATOM     15  H   UNL     1      25.353   2.477  53.768  1.00  0.00    +0.156 HD
ENDBRANCH   6  13
BRANCH   6  16
ATOM     16  C   UNL     1      24.300   4.166  51.168  1.00  0.00    +0.104 C 
ATOM     17  C   UNL     1      23.322   5.154  51.509  1.00  0.00    +0.104 C 
ATOM     18  C   UNL     1      25.082   4.295  50.072  1.00  0.00    +0.149 C 
ATOM     19  N   UNL     1      22.501   5.923  51.791  1.00  0.00    -0.192 NA
ATOM     20  C   UNL     1      24.974   5.420  49.207  1.00  0.00    +0.112 C 
ATOM     21  C   UNL     1      26.054   3.308  49.742  1.00  0.00    +0.112 C 
ATOM     22  N   UNL     1      24.870   6.327  48.491  1.00  0.00    -0.192 NA
ATOM     23  N   UNL     1      26.853   2.506  49.485  1.00  0.00    -0.192 NA
ENDBRANCH   6  16
BRANCH   8  24
ATOM     24  C   UNL     1      25.462  -0.027  53.817  1.00  0.00    +0.089 A 
ATOM     25  C   UNL     1      25.940   0.047  55.126  1.00  0.00    +0.031 A 
ATOM     26  N   UNL     1      26.289   0.081  52.744  1.00  0.00    -0.255 NA
ATOM     27  C   UNL     1      27.302   0.241  55.346  1.00  0.00    +0.004 A 
ATOM     28  C   UNL     1      27.605   0.307  52.990  1.00  0.00    +0.112 A 
ATOM     29  C   UNL     1      28.152   0.382  54.258  1.00  0.00    +0.020 A 
ENDBRANCH   8  24
TORSDOF 3
ENDMDL
MODEL 9
REMARK VINA RESULT:    -6.897      2.837      6.286
REMARK INTER + INTRA:          -8.311
REMARK INTER:                  -7.748
REMARK INTRA:                  -0.563
REMARK UNBOUND:                -0.406
REMARK SMILES CN1C(=O)C(=C(N)C(C#N)=C(C#N)C#N)c2c(-c3ccccn3)ncnc21
REMARK SMILES IDX 1 1 2 2 3 3 4 4 5 5 6 6 16 7 17 8 24 9 25 10 26 11 27 12
REMARK SMILES IDX 7 13 8 16 9 17 11 18 10 19 12 20 14 21 13 22 15 23 18 24
REMARK SMILES IDX 19 25 23 26 20 27 22 28 21 29
REMARK H PARENT 7 14 7 15
ROOT
ATOM      1  C   UNL     1      18.544   1.816  51.885  1.00  0.00    +0.155 C 
ATOM      2  N   UNL     1      19.950   2.121  51.922  1.00  0.00    -0.295 N 
ATOM      3  C   UNL     1      20.594   3.031  51.120  1.00  0.00    +0.262 C 
ATOM      4  O   UNL     1      20.110   3.751  50.264  1.00  0.00    -0.269 OA
ATOM      5  C   UNL     1      22.051   2.981  51.546  1.00  0.00    +0.078 C 
ATOM      6  C   UNL     1      22.935   3.905  51.094  1.00  0.00    +0.065 C 
ATOM      7  C   UNL     1      22.151   1.877  52.527  1.00  0.00    +0.060 A 
ATOM      8  C   UNL     1      23.110   1.107  53.148  1.00  0.00    +0.102 A 
ATOM      9  N   UNL     1      22.764   0.067  53.965  1.00  0.00    -0.234 NA
ATOM     10  C   UNL     1      21.463  -0.199  54.142  1.00  0.00    +0.225 A 
ATOM     11  N   UNL     1      20.459   0.431  53.538  1.00  0.00    -0.218 NA
ATOM     12  C   UNL     1      20.848   1.432  52.740  1.00  0.00    +0.147 A 
ENDROOT
BRANCH   6  13
ATOM     13  N   UNL     1      24.200   4.128  51.595  1.00  0.00    -0.397 N 
ATOM     14  H   UNL     1      24.879   4.498  50.919  1.00  0.00    +0.156 HD
ATOM     15  H   UNL     1      24.224   4.699  52.439  1.00  0.00    +0.156 HD
ENDBRANCH   6  13
BRANCH   6  16
ATOM     16  C   UNL     1      22.574   4.880  50.045  1.00  0.00    +0.104 C 
ATOM     17  C   UNL     1      22.288   6.203  50.512  1.00  0.00    +0.104 C 
ATOM     18  C   UNL     1      22.492   4.561  48.733  1.00  0.00    +0.149 C 
ATOM     19  N   UNL     1      22.030   7.257  50.921  1.00  0.00    -0.192 NA
ATOM     20  C   UNL     1      22.122   5.525  47.753  1.00  0.00    +0.112 C 
ATOM     21  C   UNL     1      22.782   3.244  48.277  1.00  0.00    +0.112 C 
ATOM     22  N   UNL     1      21.799   6.306  46.958  1.00  0.00    -0.192 NA
ATOM     23  N   UNL     1      23.031   2.171  47.910  1.00  0.00    -0.192 NA
ENDBRANCH   6  16
BRANCH   8  24
ATOM     24  C   UNL     1      24.564   1.210  52.964  1.00  0.00    +0.089 A 
ATOM     25  C   UNL     1      25.260   0.282  52.188  1.00  0.00    +0.031 A 
ATOM     26  N   UNL     1      25.203   2.194  53.650  1.00  0.00    -0.255 NA
ATOM     27  C   UNL     1      26.649   0.357  52.115  1.00  0.00    +0.004 A 
ATOM     28  C   UNL     1      26.558   2.218  53.591  1.00  0.00    +0.112 A 
ATOM     29  C   UNL     1      27.314   1.338  52.836  1.00  0.00    +0.020 A 
ENDBRANCH   8  24
TORSDOF 3
ENDMDL
