MODEL 1
REMARK VINA RESULT:    -8.114      0.000      0.000
REMARK INTER + INTRA:         -11.568
REMARK INTER:                 -10.722
REMARK INTRA:                  -0.846
REMARK UNBOUND:                -0.846
REMARK SMILES Cc1cc(Cc2cc(C(=O)O)cc(O)c2O)[nH]c1N1CCOCC1
REMARK SMILES IDX 6 1 7 2 8 3 12 4 13 5 15 6 5 7 4 8 2 9 3 10 18 11 17 12 1 13
REMARK SMILES IDX 19 15 20 16 24 17 21 18 23 19 22 20 16 21 9 23 10 24 11 25
REMARK SMILES IDX 14 27
REMARK H PARENT 17 14 16 22 11 26 14 28
ROOT
ATOM      1  C   UNL     1      26.512   1.207  53.288  1.00  0.00    +0.004 A 
ATOM      2  C   UNL     1      26.401  -0.131  52.861  1.00  0.00    +0.024 A 
ATOM      3  C   UNL     1      27.503  -1.004  52.902  1.00  0.00    +0.064 A 
ATOM      4  C   UNL     1      28.735  -0.548  53.379  1.00  0.00    +0.065 A 
ATOM      5  C   UNL     1      28.845   0.769  53.799  1.00  0.00    +0.158 A 
ATOM      6  C   UNL     1      27.758   1.644  53.751  1.00  0.00    +0.161 A 
ENDROOT
BRANCH   1   7
ATOM      7  C   UNL     1      25.286   2.094  53.249  1.00  0.00    +0.093 C 
BRANCH   7   8
ATOM      8  C   UNL     1      24.924   2.564  51.879  1.00  0.00    +0.021 A 
ATOM      9  C   UNL     1      23.996   2.947  49.837  1.00  0.00    -0.009 A 
ATOM     10  C   UNL     1      23.916   2.163  51.028  1.00  0.00    +0.029 A 
ATOM     11  C   UNL     1      25.072   3.805  49.995  1.00  0.00    +0.109 A 
ATOM     12  N   UNL     1      25.629   3.541  51.223  1.00  0.00    -0.345 N 
ATOM     13  C   UNL     1      23.049   2.837  48.696  1.00  0.00    +0.048 C 
ATOM     14  H   UNL     1      26.452   4.010  51.572  1.00  0.00    +0.168 HD
BRANCH  11  15
ATOM     15  N   UNL     1      25.660   4.767  49.229  1.00  0.00    -0.353 N 
ATOM     16  C   UNL     1      25.137   6.147  49.216  1.00  0.00    +0.146 C 
ATOM     17  C   UNL     1      27.132   4.684  49.053  1.00  0.00    +0.146 C 
ATOM     18  C   UNL     1      26.186   7.130  49.758  1.00  0.00    +0.181 C 
ATOM     19  C   UNL     1      27.662   5.919  48.308  1.00  0.00    +0.181 C 
ATOM     20  O   UNL     1      27.400   7.155  48.989  1.00  0.00    -0.378 OA
ENDBRANCH  11  15
ENDBRANCH   7   8
ENDBRANCH   1   7
BRANCH   6  21
ATOM     21  O   UNL     1      28.002   2.923  54.174  1.00  0.00    -0.504 OA
ATOM     22  H   UNL     1      28.825   3.239  53.759  1.00  0.00    +0.293 HD
ENDBRANCH   6  21
BRANCH   3  23
ATOM     23  C   UNL     1      27.406  -2.415  52.457  1.00  0.00    +0.335 C 
ATOM     24  O   UNL     1      26.554  -2.879  51.723  1.00  0.00    -0.246 OA
BRANCH  23  25
ATOM     25  O   UNL     1      28.387  -3.186  52.959  1.00  0.00    -0.478 OA
ATOM     26  H   UNL     1      28.709  -3.687  52.179  1.00  0.00    +0.297 HD
ENDBRANCH  23  25
ENDBRANCH   3  23
BRANCH   5  27
ATOM     27  O   UNL     1      30.051   1.216  54.260  1.00  0.00    -0.504 OA
ATOM     28  H   UNL     1      30.644   1.167  53.484  1.00  0.00    +0.293 HD
ENDBRANCH   5  27
TORSDOF 7
ENDMDL
MODEL 2
REMARK VINA RESULT:    -8.037      3.426      5.120
REMARK INTER + INTRA:         -11.467
REMARK INTER:                 -10.915
REMARK INTRA:                  -0.552
REMARK UNBOUND:                -0.846
REMARK SMILES Cc1cc(Cc2cc(C(=O)O)cc(O)c2O)[nH]c1N1CCOCC1
REMARK SMILES IDX 6 1 7 2 8 3 12 4 13 5 15 6 5 7 4 8 2 9 3 10 18 11 17 12 1 13
REMARK SMILES IDX 19 15 20 16 24 17 21 18 23 19 22 20 16 21 9 23 10 24 11 25
REMARK SMILES IDX 14 27
REMARK H PARENT 17 14 16 22 11 26 14 28
ROOT
ATOM      1  C   UNL     1      26.850   0.664  52.765  1.00  0.00    +0.004 A 
ATOM      2  C   UNL     1      27.262  -0.681  52.677  1.00  0.00    +0.024 A 
ATOM      3  C   UNL     1      28.387  -1.148  53.381  1.00  0.00    +0.064 A 
ATOM      4  C   UNL     1      29.114  -0.271  54.190  1.00  0.00    +0.065 A 
ATOM      5  C   UNL     1      28.711   1.052  54.276  1.00  0.00    +0.158 A 
ATOM      6  C   UNL     1      27.602   1.525  53.572  1.00  0.00    +0.161 A 
ENDROOT
BRANCH   1   7
ATOM      7  C   UNL     1      25.616   1.104  52.009  1.00  0.00    +0.093 C 
BRANCH   7   8
ATOM      8  C   UNL     1      24.335   0.653  52.630  1.00  0.00    +0.021 A 
ATOM      9  C   UNL     1      22.685  -0.338  53.844  1.00  0.00    -0.009 A 
ATOM     10  C   UNL     1      24.088  -0.312  53.583  1.00  0.00    +0.029 A 
ATOM     11  C   UNL     1      22.108   0.618  53.021  1.00  0.00    +0.109 A 
ATOM     12  N   UNL     1      23.119   1.186  52.284  1.00  0.00    -0.345 N 
ATOM     13  C   UNL     1      22.034  -1.221  54.847  1.00  0.00    +0.048 C 
ATOM     14  H   UNL     1      22.963   1.894  51.581  1.00  0.00    +0.168 HD
BRANCH  11  15
ATOM     15  N   UNL     1      20.838   1.058  52.795  1.00  0.00    -0.353 N 
ATOM     16  C   UNL     1      20.560   2.493  52.593  1.00  0.00    +0.146 C 
ATOM     17  C   UNL     1      19.940   0.160  52.026  1.00  0.00    +0.146 C 
ATOM     18  C   UNL     1      19.993   2.742  51.187  1.00  0.00    +0.181 C 
ATOM     19  C   UNL     1      18.607   0.859  51.717  1.00  0.00    +0.181 C 
ATOM     20  O   UNL     1      18.755   2.056  50.937  1.00  0.00    -0.378 OA
ENDBRANCH  11  15
ENDBRANCH   7   8
ENDBRANCH   1   7
BRANCH   6  21
ATOM     21  O   UNL     1      27.320   2.856  53.725  1.00  0.00    -0.504 OA
ATOM     22  H   UNL     1      27.675   3.343  52.959  1.00  0.00    +0.293 HD
ENDBRANCH   6  21
BRANCH   3  23
ATOM     23  C   UNL     1      28.835  -2.559  53.301  1.00  0.00    +0.335 C 
ATOM     24  O   UNL     1      29.757  -3.056  53.920  1.00  0.00    -0.246 OA
BRANCH  23  25
ATOM     25  O   UNL     1      28.105  -3.287  52.436  1.00  0.00    -0.478 OA
ATOM     26  H   UNL     1      27.262  -3.438  52.916  1.00  0.00    +0.297 HD
ENDBRANCH  23  25
ENDBRANCH   3  23
BRANCH   5  27
ATOM     27  O   UNL     1      29.427   1.910  55.063  1.00  0.00    -0.504 OA
ATOM     28  H   UNL     1      29.379   2.769  54.597  1.00  0.00    +0.293 HD
ENDBRANCH   5  27
TORSDOF 7
ENDMDL
MODEL 3
REMARK VINA RESULT:    -7.854      2.985      5.103
REMARK INTER + INTRA:         -11.225
REMARK INTER:                 -10.593
REMARK INTRA:                  -0.633
REMARK UNBOUND:                -0.846
REMARK SMILES Cc1cc(Cc2cc(C(=O)O)cc(O)c2O)[nH]c1N1CCOCC1
REMARK SMILES IDX 6 1 7 2 8 3 12 4 13 5 15 6 5 7 4 8 2 9 3 10 18 11 17 12 1 13
REMARK SMILES IDX 19 15 20 16 24 17 21 18 23 19 22 20 16 21 9 23 10 24 11 25
REMARK SMILES IDX 14 27
REMARK H PARENT 17 14 16 22 11 26 14 28
ROOT
ATOM      1  C   UNL     1      26.741   1.226  53.490  1.00  0.00    +0.004 A 
ATOM      2  C   UNL     1      26.528  -0.099  53.060  1.00  0.00    +0.024 A 
ATOM      3  C   UNL     1      27.592  -1.014  52.958  1.00  0.00    +0.064 A 
ATOM      4  C   UNL     1      28.888  -0.613  53.291  1.00  0.00    +0.065 A 
ATOM      5  C   UNL     1      29.100   0.690  53.713  1.00  0.00    +0.158 A 
ATOM      6  C   UNL     1      28.050   1.607  53.807  1.00  0.00    +0.161 A 
ENDROOT
BRANCH   1   7
ATOM      7  C   UNL     1      25.556   2.158  53.610  1.00  0.00    +0.093 C 
BRANCH   7   8
ATOM      8  C   UNL     1      24.466   1.879  52.628  1.00  0.00    +0.021 A 
ATOM      9  C   UNL     1      23.081   1.747  50.828  1.00  0.00    -0.009 A 
ATOM     10  C   UNL     1      24.279   2.331  51.339  1.00  0.00    +0.029 A 
ATOM     11  C   UNL     1      22.559   0.956  51.839  1.00  0.00    +0.109 A 
ATOM     12  N   UNL     1      23.399   1.068  52.921  1.00  0.00    -0.345 N 
ATOM     13  C   UNL     1      22.565   1.961  49.450  1.00  0.00    +0.048 C 
ATOM     14  H   UNL     1      23.229   0.613  53.806  1.00  0.00    +0.168 HD
BRANCH  11  15
ATOM     15  N   UNL     1      21.455   0.168  51.977  1.00  0.00    -0.353 N 
ATOM     16  C   UNL     1      21.428  -0.930  52.963  1.00  0.00    +0.146 C 
ATOM     17  C   UNL     1      20.135   0.813  51.763  1.00  0.00    +0.146 C 
ATOM     18  C   UNL     1      20.343  -0.682  54.021  1.00  0.00    +0.181 C 
ATOM     19  C   UNL     1      18.994  -0.156  52.110  1.00  0.00    +0.181 C 
ATOM     20  O   UNL     1      19.016  -0.602  53.475  1.00  0.00    -0.378 OA
ENDBRANCH  11  15
ENDBRANCH   7   8
ENDBRANCH   1   7
BRANCH   6  21
ATOM     21  O   UNL     1      28.393   2.868  54.216  1.00  0.00    -0.504 OA
ATOM     22  H   UNL     1      28.892   2.802  55.051  1.00  0.00    +0.293 HD
ENDBRANCH   6  21
BRANCH   3  23
ATOM     23  C   UNL     1      27.387  -2.411  52.507  1.00  0.00    +0.335 C 
ATOM     24  O   UNL     1      26.505  -2.805  51.767  1.00  0.00    -0.246 OA
BRANCH  23  25
ATOM     25  O   UNL     1      28.301  -3.259  53.013  1.00  0.00    -0.478 OA
ATOM     26  H   UNL     1      27.918  -3.522  53.878  1.00  0.00    +0.297 HD
ENDBRANCH  23  25
ENDBRANCH   3  23
BRANCH   5  27
ATOM     27  O   UNL     1      30.369   1.083  54.034  1.00  0.00    -0.504 OA
ATOM     28  H   UNL     1      30.453   1.980  53.651  1.00  0.00    +0.293 HD
ENDBRANCH   5  27
TORSDOF 7
ENDMDL
MODEL 4
REMARK VINA RESULT:    -7.307      1.988      2.562
REMARK INTER + INTRA:         -10.503
REMARK INTER:                  -9.583
REMARK INTRA:                  -0.920
REMARK UNBOUND:                -0.846
REMARK SMILES Cc1cc(Cc2cc(C(=O)O)cc(O)c2O)[nH]c1N1CCOCC1
REMARK SMILES IDX 6 1 7 2 8 3 12 4 13 5 15 6 5 7 4 8 2 9 3 10 18 11 17 12 1 13
REMARK SMILES IDX 19 15 20 16 24 17 21 18 23 19 22 20 16 21 9 23 10 24 11 25
REMARK SMILES IDX 14 27
REMARK H PARENT 17 14 16 22 11 26 14 28
ROOT
ATOM      1  C   UNL     1      24.996   0.797  53.190  1.00  0.00    +0.004 A 
ATOM      2  C   UNL     1      25.583  -0.466  52.974  1.00  0.00    +0.024 A 
ATOM      3  C   UNL     1      26.972  -0.655  53.092  1.00  0.00    +0.064 A 
ATOM      4  C   UNL     1      27.794   0.422  53.433  1.00  0.00    +0.065 A 
ATOM      5  C   UNL     1      27.218   1.665  53.644  1.00  0.00    +0.158 A 
ATOM      6  C   UNL     1      25.841   1.862  53.520  1.00  0.00    +0.161 A 
ENDROOT
BRANCH   1   7
ATOM      7  C   UNL     1      23.493   0.936  53.080  1.00  0.00    +0.093 C 
BRANCH   7   8
ATOM      8  C   UNL     1      23.036   1.548  51.797  1.00  0.00    +0.021 A 
ATOM      9  C   UNL     1      22.167   2.016  49.747  1.00  0.00    -0.009 A 
ATOM     10  C   UNL     1      22.400   0.988  50.710  1.00  0.00    +0.029 A 
ATOM     11  C   UNL     1      22.686   3.186  50.278  1.00  0.00    +0.109 A 
ATOM     12  N   UNL     1      23.223   2.875  51.504  1.00  0.00    -0.345 N 
ATOM     13  C   UNL     1      21.463   1.810  48.454  1.00  0.00    +0.048 C 
ATOM     14  H   UNL     1      23.696   3.548  52.091  1.00  0.00    +0.168 HD
BRANCH  11  15
ATOM     15  N   UNL     1      22.785   4.478  49.855  1.00  0.00    -0.353 N 
ATOM     16  C   UNL     1      21.651   5.411  50.004  1.00  0.00    +0.146 C 
ATOM     17  C   UNL     1      24.115   5.128  49.977  1.00  0.00    +0.146 C 
ATOM     18  C   UNL     1      22.025   6.575  50.934  1.00  0.00    +0.181 C 
ATOM     19  C   UNL     1      24.026   6.619  49.614  1.00  0.00    +0.181 C 
ATOM     20  O   UNL     1      23.130   7.361  50.455  1.00  0.00    -0.378 OA
ENDBRANCH  11  15
ENDBRANCH   7   8
ENDBRANCH   1   7
BRANCH   6  21
ATOM     21  O   UNL     1      25.399   3.140  53.734  1.00  0.00    -0.504 OA
ATOM     22  H   UNL     1      25.098   3.218  54.658  1.00  0.00    +0.293 HD
ENDBRANCH   6  21
BRANCH   3  23
ATOM     23  C   UNL     1      27.608  -1.975  52.867  1.00  0.00    +0.335 C 
ATOM     24  O   UNL     1      28.678  -2.342  53.315  1.00  0.00    -0.246 OA
BRANCH  23  25
ATOM     25  O   UNL     1      26.870  -2.779  52.081  1.00  0.00    -0.478 OA
ATOM     26  H   UNL     1      26.000  -2.327  52.041  1.00  0.00    +0.297 HD
ENDBRANCH  23  25
ENDBRANCH   3  23
BRANCH   5  27
ATOM     27  O   UNL     1      28.023   2.719  53.973  1.00  0.00    -0.504 OA
ATOM     28  H   UNL     1      27.523   3.509  53.685  1.00  0.00    +0.293 HD
ENDBRANCH   5  27
TORSDOF 7
ENDMDL
MODEL 5
REMARK VINA RESULT:    -7.243      1.756      2.488
REMARK INTER + INTRA:         -10.418
REMARK INTER:                 -10.007
REMARK INTRA:                  -0.411
REMARK UNBOUND:                -0.846
REMARK SMILES Cc1cc(Cc2cc(C(=O)O)cc(O)c2O)[nH]c1N1CCOCC1
REMARK SMILES IDX 6 1 7 2 8 3 12 4 13 5 15 6 5 7 4 8 2 9 3 10 18 11 17 12 1 13
REMARK SMILES IDX 19 15 20 16 24 17 21 18 23 19 22 20 16 21 9 23 10 24 11 25
REMARK SMILES IDX 14 27
REMARK H PARENT 17 14 16 22 11 26 14 28
ROOT
ATOM      1  C   UNL     1      26.703   0.660  52.998  1.00  0.00    +0.004 A 
ATOM      2  C   UNL     1      27.181  -0.660  52.881  1.00  0.00    +0.024 A 
ATOM      3  C   UNL     1      28.391  -1.055  53.480  1.00  0.00    +0.064 A 
ATOM      4  C   UNL     1      29.139  -0.129  54.212  1.00  0.00    +0.065 A 
ATOM      5  C   UNL     1      28.671   1.170  54.327  1.00  0.00    +0.158 A 
ATOM      6  C   UNL     1      27.475   1.572  53.726  1.00  0.00    +0.161 A 
ENDROOT
BRANCH   1   7
ATOM      7  C   UNL     1      25.381   1.022  52.358  1.00  0.00    +0.093 C 
BRANCH   7   8
ATOM      8  C   UNL     1      25.422   2.284  51.560  1.00  0.00    +0.021 A 
ATOM      9  C   UNL     1      25.883   3.990  50.127  1.00  0.00    -0.009 A 
ATOM     10  C   UNL     1      26.305   2.707  50.590  1.00  0.00    +0.029 A 
ATOM     11  C   UNL     1      24.746   4.321  50.847  1.00  0.00    +0.109 A 
ATOM     12  N   UNL     1      24.500   3.288  51.719  1.00  0.00    -0.345 N 
ATOM     13  C   UNL     1      26.560   4.755  49.047  1.00  0.00    +0.048 C 
ATOM     14  H   UNL     1      23.742   3.292  52.386  1.00  0.00    +0.168 HD
BRANCH  11  15
ATOM     15  N   UNL     1      23.902   5.390  50.880  1.00  0.00    -0.353 N 
ATOM     16  C   UNL     1      24.371   6.710  51.343  1.00  0.00    +0.146 C 
ATOM     17  C   UNL     1      22.862   5.461  49.823  1.00  0.00    +0.146 C 
ATOM     18  C   UNL     1      24.279   7.745  50.212  1.00  0.00    +0.181 C 
ATOM     19  C   UNL     1      22.101   6.794  49.898  1.00  0.00    +0.181 C 
ATOM     20  O   UNL     1      22.942   7.945  49.724  1.00  0.00    -0.378 OA
ENDBRANCH  11  15
ENDBRANCH   7   8
ENDBRANCH   1   7
BRANCH   6  21
ATOM     21  O   UNL     1      27.134   2.887  53.897  1.00  0.00    -0.504 OA
ATOM     22  H   UNL     1      27.519   3.205  54.733  1.00  0.00    +0.293 HD
ENDBRANCH   6  21
BRANCH   3  23
ATOM     23  C   UNL     1      28.910  -2.439  53.368  1.00  0.00    +0.335 C 
ATOM     24  O   UNL     1      29.863  -2.900  53.967  1.00  0.00    -0.246 OA
BRANCH  23  25
ATOM     25  O   UNL     1      28.208  -3.187  52.497  1.00  0.00    -0.478 OA
ATOM     26  H   UNL     1      28.512  -2.867  51.620  1.00  0.00    +0.297 HD
ENDBRANCH  23  25
ENDBRANCH   3  23
BRANCH   5  27
ATOM     27  O   UNL     1      29.406   2.077  55.039  1.00  0.00    -0.504 OA
ATOM     28  H   UNL     1      28.782   2.808  55.223  1.00  0.00    +0.293 HD
ENDBRANCH   5  27
TORSDOF 7
ENDMDL
MODEL 6
REMARK VINA RESULT:    -7.155      2.180      6.974
REMARK INTER + INTRA:         -10.302
REMARK INTER:                  -9.631
REMARK INTRA:                  -0.671
REMARK UNBOUND:                -0.846
REMARK SMILES Cc1cc(Cc2cc(C(=O)O)cc(O)c2O)[nH]c1N1CCOCC1
REMARK SMILES IDX 6 1 7 2 8 3 12 4 13 5 15 6 5 7 4 8 2 9 3 10 18 11 17 12 1 13
REMARK SMILES IDX 19 15 20 16 24 17 21 18 23 19 22 20 16 21 9 23 10 24 11 25
REMARK SMILES IDX 14 27
REMARK H PARENT 17 14 16 22 11 26 14 28
ROOT
ATOM      1  C   UNL     1      24.129   4.651  49.947  1.00  0.00    +0.004 A 
ATOM      2  C   UNL     1      25.332   4.752  49.220  1.00  0.00    +0.024 A 
ATOM      3  C   UNL     1      26.129   5.909  49.283  1.00  0.00    +0.064 A 
ATOM      4  C   UNL     1      25.732   6.984  50.083  1.00  0.00    +0.065 A 
ATOM      5  C   UNL     1      24.549   6.887  50.798  1.00  0.00    +0.158 A 
ATOM      6  C   UNL     1      23.747   5.745  50.732  1.00  0.00    +0.161 A 
ENDROOT
BRANCH   1   7
ATOM      7  C   UNL     1      23.327   3.371  49.865  1.00  0.00    +0.093 C 
BRANCH   7   8
ATOM      8  C   UNL     1      23.685   2.366  50.909  1.00  0.00    +0.021 A 
ATOM      9  C   UNL     1      23.736   0.741  52.502  1.00  0.00    -0.009 A 
ATOM     10  C   UNL     1      22.891   1.515  51.649  1.00  0.00    +0.029 A 
ATOM     11  C   UNL     1      25.036   1.157  52.261  1.00  0.00    +0.109 A 
ATOM     12  N   UNL     1      24.978   2.151  51.314  1.00  0.00    -0.345 N 
ATOM     13  C   UNL     1      23.250  -0.320  53.423  1.00  0.00    +0.048 C 
ATOM     14  H   UNL     1      25.791   2.649  50.982  1.00  0.00    +0.168 HD
BRANCH  11  15
ATOM     15  N   UNL     1      26.262   0.823  52.752  1.00  0.00    -0.353 N 
ATOM     16  C   UNL     1      26.719   1.334  54.059  1.00  0.00    +0.146 C 
ATOM     17  C   UNL     1      26.771  -0.534  52.429  1.00  0.00    +0.146 C 
ATOM     18  C   UNL     1      26.945   0.177  55.044  1.00  0.00    +0.181 C 
ATOM     19  C   UNL     1      28.081  -0.817  53.182  1.00  0.00    +0.181 C 
ATOM     20  O   UNL     1      27.944  -0.760  54.611  1.00  0.00    -0.378 OA
ENDBRANCH  11  15
ENDBRANCH   7   8
ENDBRANCH   1   7
BRANCH   6  21
ATOM     21  O   UNL     1      22.594   5.781  51.469  1.00  0.00    -0.504 OA
ATOM     22  H   UNL     1      22.783   5.446  52.364  1.00  0.00    +0.293 HD
ENDBRANCH   6  21
BRANCH   3  23
ATOM     23  C   UNL     1      27.397   6.034  48.525  1.00  0.00    +0.335 C 
ATOM     24  O   UNL     1      27.661   6.892  47.704  1.00  0.00    -0.246 OA
BRANCH  23  25
ATOM     25  O   UNL     1      28.280   5.065  48.828  1.00  0.00    -0.478 OA
ATOM     26  H   UNL     1      28.989   5.183  48.160  1.00  0.00    +0.297 HD
ENDBRANCH  23  25
ENDBRANCH   3  23
BRANCH   5  27
ATOM     27  O   UNL     1      24.159   7.941  51.576  1.00  0.00    -0.504 OA
ATOM     28  H   UNL     1      24.299   7.633  52.494  1.00  0.00    +0.293 HD
ENDBRANCH   5  27
TORSDOF 7
ENDMDL
MODEL 7
REMARK VINA RESULT:    -7.102      3.051      6.933
REMARK INTER + INTRA:         -10.232
REMARK INTER:                  -9.489
REMARK INTRA:                  -0.742
REMARK UNBOUND:                -0.846
REMARK SMILES Cc1cc(Cc2cc(C(=O)O)cc(O)c2O)[nH]c1N1CCOCC1
REMARK SMILES IDX 6 1 7 2 8 3 12 4 13 5 15 6 5 7 4 8 2 9 3 10 18 11 17 12 1 13
REMARK SMILES IDX 19 15 20 16 24 17 21 18 23 19 22 20 16 21 9 23 10 24 11 25
REMARK SMILES IDX 14 27
REMARK H PARENT 17 14 16 22 11 26 14 28
ROOT
ATOM      1  C   UNL     1      23.096   2.997  50.721  1.00  0.00    +0.004 A 
ATOM      2  C   UNL     1      24.380   3.184  50.170  1.00  0.00    +0.024 A 
ATOM      3  C   UNL     1      24.982   4.454  50.136  1.00  0.00    +0.064 A 
ATOM      4  C   UNL     1      24.305   5.559  50.660  1.00  0.00    +0.065 A 
ATOM      5  C   UNL     1      23.043   5.377  51.202  1.00  0.00    +0.158 A 
ATOM      6  C   UNL     1      22.434   4.120  51.230  1.00  0.00    +0.161 A 
ENDROOT
BRANCH   1   7
ATOM      7  C   UNL     1      22.509   1.603  50.759  1.00  0.00    +0.093 C 
BRANCH   7   8
ATOM      8  C   UNL     1      22.904   0.813  51.963  1.00  0.00    +0.021 A 
ATOM      9  C   UNL     1      23.009  -0.448  53.855  1.00  0.00    -0.009 A 
ATOM     10  C   UNL     1      22.135   0.188  52.921  1.00  0.00    +0.029 A 
ATOM     11  C   UNL     1      24.303  -0.176  53.439  1.00  0.00    +0.109 A 
ATOM     12  N   UNL     1      24.215   0.602  52.310  1.00  0.00    -0.345 N 
ATOM     13  C   UNL     1      22.551  -1.262  55.011  1.00  0.00    +0.048 C 
ATOM     14  H   UNL     1      25.020   0.967  51.823  1.00  0.00    +0.168 HD
BRANCH  11  15
ATOM     15  N   UNL     1      25.548  -0.482  53.899  1.00  0.00    -0.353 N 
ATOM     16  C   UNL     1      26.464  -1.322  53.103  1.00  0.00    +0.146 C 
ATOM     17  C   UNL     1      26.239   0.550  54.713  1.00  0.00    +0.146 C 
ATOM     18  C   UNL     1      27.723  -0.533  52.713  1.00  0.00    +0.181 C 
ATOM     19  C   UNL     1      27.684   0.126  55.017  1.00  0.00    +0.181 C 
ATOM     20  O   UNL     1      28.484  -0.071  53.841  1.00  0.00    -0.378 OA
ENDBRANCH  11  15
ENDBRANCH   7   8
ENDBRANCH   1   7
BRANCH   6  21
ATOM     21  O   UNL     1      21.178   4.076  51.773  1.00  0.00    -0.504 OA
ATOM     22  H   UNL     1      20.551   4.478  51.145  1.00  0.00    +0.293 HD
ENDBRANCH   6  21
BRANCH   3  23
ATOM     23  C   UNL     1      26.330   4.670  49.559  1.00  0.00    +0.335 C 
ATOM     24  O   UNL     1      26.611   5.434  48.654  1.00  0.00    -0.246 OA
BRANCH  23  25
ATOM     25  O   UNL     1      27.272   3.908  50.143  1.00  0.00    -0.478 OA
ATOM     26  H   UNL     1      27.377   4.311  51.031  1.00  0.00    +0.297 HD
ENDBRANCH  23  25
ENDBRANCH   3  23
BRANCH   5  27
ATOM     27  O   UNL     1      22.380   6.459  51.710  1.00  0.00    -0.504 OA
ATOM     28  H   UNL     1      21.456   6.155  51.811  1.00  0.00    +0.293 HD
ENDBRANCH   5  27
TORSDOF 7
ENDMDL
MODEL 8
REMARK VINA RESULT:    -7.044      1.092      2.721
REMARK INTER + INTRA:         -10.155
REMARK INTER:                  -9.323
REMARK INTRA:                  -0.832
REMARK UNBOUND:                -0.846
REMARK SMILES Cc1cc(Cc2cc(C(=O)O)cc(O)c2O)[nH]c1N1CCOCC1
REMARK SMILES IDX 6 1 7 2 8 3 12 4 13 5 15 6 5 7 4 8 2 9 3 10 18 11 17 12 1 13
REMARK SMILES IDX 19 15 20 16 24 17 21 18 23 19 22 20 16 21 9 23 10 24 11 25
REMARK SMILES IDX 14 27
REMARK H PARENT 17 14 16 22 11 26 14 28
ROOT
ATOM      1  C   UNL     1      25.572   1.547  53.365  1.00  0.00    +0.004 A 
ATOM      2  C   UNL     1      26.864   1.992  53.709  1.00  0.00    +0.024 A 
ATOM      3  C   UNL     1      27.928   1.086  53.873  1.00  0.00    +0.064 A 
ATOM      4  C   UNL     1      27.711  -0.282  53.689  1.00  0.00    +0.065 A 
ATOM      5  C   UNL     1      26.441  -0.721  53.352  1.00  0.00    +0.158 A 
ATOM      6  C   UNL     1      25.377   0.172  53.198  1.00  0.00    +0.161 A 
ENDROOT
BRANCH   1   7
ATOM      7  C   UNL     1      24.472   2.568  53.173  1.00  0.00    +0.093 C 
BRANCH   7   8
ATOM      8  C   UNL     1      24.294   3.005  51.756  1.00  0.00    +0.021 A 
ATOM      9  C   UNL     1      23.630   3.353  49.607  1.00  0.00    -0.009 A 
ATOM     10  C   UNL     1      23.377   2.614  50.803  1.00  0.00    +0.029 A 
ATOM     11  C   UNL     1      24.716   4.175  49.868  1.00  0.00    +0.109 A 
ATOM     12  N   UNL     1      25.111   3.932  51.161  1.00  0.00    -0.345 N 
ATOM     13  C   UNL     1      22.821   3.241  48.366  1.00  0.00    +0.048 C 
ATOM     14  H   UNL     1      25.907   4.380  51.592  1.00  0.00    +0.168 HD
BRANCH  11  15
ATOM     15  N   UNL     1      25.430   5.087  49.150  1.00  0.00    -0.353 N 
ATOM     16  C   UNL     1      25.049   6.513  49.148  1.00  0.00    +0.146 C 
ATOM     17  C   UNL     1      26.892   4.859  49.033  1.00  0.00    +0.146 C 
ATOM     18  C   UNL     1      26.166   7.374  49.756  1.00  0.00    +0.181 C 
ATOM     19  C   UNL     1      27.575   6.048  48.340  1.00  0.00    +0.181 C 
ATOM     20  O   UNL     1      27.409   7.292  49.039  1.00  0.00    -0.378 OA
ENDBRANCH  11  15
ENDBRANCH   7   8
ENDBRANCH   1   7
BRANCH   6  21
ATOM     21  O   UNL     1      24.168  -0.389  52.884  1.00  0.00    -0.504 OA
ATOM     22  H   UNL     1      23.458   0.200  53.200  1.00  0.00    +0.293 HD
ENDBRANCH   6  21
BRANCH   3  23
ATOM     23  C   UNL     1      29.294   1.535  54.235  1.00  0.00    +0.335 C 
ATOM     24  O   UNL     1      29.574   2.450  54.986  1.00  0.00    -0.246 OA
BRANCH  23  25
ATOM     25  O   UNL     1      30.255   0.813  53.629  1.00  0.00    -0.478 OA
ATOM     26  H   UNL     1      31.024   1.423  53.611  1.00  0.00    +0.297 HD
ENDBRANCH  23  25
ENDBRANCH   3  23
BRANCH   5  27
ATOM     27  O   UNL     1      26.229  -2.059  53.177  1.00  0.00    -0.504 OA
ATOM     28  H   UNL     1      26.856  -2.317  52.472  1.00  0.00    +0.293 HD
ENDBRANCH   5  27
TORSDOF 7
ENDMDL
MODEL 9
REMARK VINA RESULT:    -6.850      3.348      4.388
REMARK INTER + INTRA:          -9.898
REMARK INTER:                  -9.294
REMARK INTRA:                  -0.605
REMARK UNBOUND:                -0.846
REMARK SMILES Cc1cc(Cc2cc(C(=O)O)cc(O)c2O)[nH]c1N1CCOCC1
REMARK SMILES IDX 6 1 7 2 8 3 12 4 13 5 15 6 5 7 4 8 2 9 3 10 18 11 17 12 1 13
REMARK SMILES IDX 19 15 20 16 24 17 21 18 23 19 22 20 16 21 9 23 10 24 11 25
REMARK SMILES IDX 14 27
REMARK H PARENT 17 14 16 22 11 26 14 28
ROOT
ATOM      1  C   UNL     1      22.418   0.054  53.217  1.00  0.00    +0.004 A 
ATOM      2  C   UNL     1      23.735   0.329  52.798  1.00  0.00    +0.024 A 
ATOM      3  C   UNL     1      24.845  -0.164  53.508  1.00  0.00    +0.064 A 
ATOM      4  C   UNL     1      24.649  -0.946  54.649  1.00  0.00    +0.065 A 
ATOM      5  C   UNL     1      23.355  -1.217  55.063  1.00  0.00    +0.158 A 
ATOM      6  C   UNL     1      22.247  -0.722  54.369  1.00  0.00    +0.161 A 
ENDROOT
BRANCH   1   7
ATOM      7  C   UNL     1      21.261   0.584  52.399  1.00  0.00    +0.093 C 
BRANCH   7   8
ATOM      8  C   UNL     1      21.679   1.384  51.209  1.00  0.00    +0.021 A 
ATOM      9  C   UNL     1      22.202   2.182  49.143  1.00  0.00    -0.009 A 
ATOM     10  C   UNL     1      21.760   1.039  49.876  1.00  0.00    +0.029 A 
ATOM     11  C   UNL     1      22.391   3.200  50.065  1.00  0.00    +0.109 A 
ATOM     12  N   UNL     1      22.090   2.690  51.305  1.00  0.00    -0.345 N 
ATOM     13  C   UNL     1      22.371   2.217  47.667  1.00  0.00    +0.048 C 
ATOM     14  H   UNL     1      22.177   3.220  52.160  1.00  0.00    +0.168 HD
BRANCH  11  15
ATOM     15  N   UNL     1      22.804   4.497  50.000  1.00  0.00    -0.353 N 
ATOM     16  C   UNL     1      21.926   5.543  49.439  1.00  0.00    +0.146 C 
ATOM     17  C   UNL     1      23.687   4.979  51.091  1.00  0.00    +0.146 C 
ATOM     18  C   UNL     1      21.581   6.591  50.507  1.00  0.00    +0.181 C 
ATOM     19  C   UNL     1      23.932   6.492  50.964  1.00  0.00    +0.181 C 
ATOM     20  O   UNL     1      22.730   7.274  51.034  1.00  0.00    -0.378 OA
ENDBRANCH  11  15
ENDBRANCH   7   8
ENDBRANCH   1   7
BRANCH   6  21
ATOM     21  O   UNL     1      21.023  -1.043  54.891  1.00  0.00    -0.504 OA
ATOM     22  H   UNL     1      20.866  -1.996  54.759  1.00  0.00    +0.293 HD
ENDBRANCH   6  21
BRANCH   3  23
ATOM     23  C   UNL     1      26.237   0.116  53.083  1.00  0.00    +0.335 C 
ATOM     24  O   UNL     1      27.249  -0.277  53.633  1.00  0.00    -0.246 OA
BRANCH  23  25
ATOM     25  O   UNL     1      26.299   0.887  51.982  1.00  0.00    -0.478 OA
ATOM     26  H   UNL     1      26.921   1.602  52.236  1.00  0.00    +0.297 HD
ENDBRANCH  23  25
ENDBRANCH   3  23
BRANCH   5  27
ATOM     27  O   UNL     1      23.164  -1.978  56.182  1.00  0.00    -0.504 OA
ATOM     28  H   UNL     1      24.044  -2.364  56.368  1.00  0.00    +0.293 HD
ENDBRANCH   5  27
TORSDOF 7
ENDMDL
