REMARK SMILES C/N=N/Nc1ccc2ncnc(-c3ccccc3)c2c1
REMARK SMILES IDX 4 1 3 3 2 4 1 5 5 6 6 7 20 8 7 9 19 10 8 11 12 12 9 13 11 14
REMARK SMILES IDX 10 15 13 16 14 17 18 18 15 19 17 20 16 21
REMARK H PARENT 4 2
ROOT
ATOM      1  N   UNL     1       3.131  -0.396  -0.249  1.00  0.00    -0.260 N 
ATOM      2  H   UNL     1       3.954  -0.713  -0.749  1.00  0.00    +0.192 HD
ENDROOT
BRANCH   1   3
ATOM      3  N   UNL     1       3.013   0.941  -0.157  1.00  0.00    -0.075 NA
ATOM      4  N   UNL     1       4.138   1.399  -0.426  1.00  0.00    -0.174 NA
ATOM      5  C   UNL     1       4.154   2.860  -0.353  1.00  0.00    +0.200 C 
ENDBRANCH   1   3
BRANCH   1   6
ATOM      6  C   UNL     1       1.974  -1.175  -0.419  1.00  0.00    +0.059 A 
ATOM      7  C   UNL     1       2.098  -2.520  -0.764  1.00  0.00    +0.030 A 
ATOM      8  C   UNL     1       0.690  -0.692  -0.145  1.00  0.00    +0.040 A 
ATOM      9  C   UNL     1       0.966  -3.334  -0.888  1.00  0.00    +0.031 A 
ATOM     10  C   UNL     1      -0.463  -1.519  -0.258  1.00  0.00    +0.029 A 
ATOM     11  C   UNL     1      -0.313  -2.854  -0.650  1.00  0.00    +0.074 A 
ATOM     12  C   UNL     1      -1.790  -1.120  -0.018  1.00  0.00    +0.081 A 
ATOM     13  N   UNL     1      -1.345  -3.691  -0.802  1.00  0.00    -0.236 NA
ATOM     14  N   UNL     1      -2.848  -1.947  -0.185  1.00  0.00    -0.236 NA
ATOM     15  C   UNL     1      -2.565  -3.195  -0.567  1.00  0.00    +0.223 A 
BRANCH  12  16
ATOM     16  C   UNL     1      -2.166   0.230   0.435  1.00  0.00    +0.001 A 
ATOM     17  C   UNL     1      -2.946   1.065  -0.383  1.00  0.00    +0.010 A 
ATOM     18  C   UNL     1      -1.780   0.711   1.698  1.00  0.00    +0.010 A 
ATOM     19  C   UNL     1      -3.307   2.348   0.037  1.00  0.00    +0.001 A 
ATOM     20  C   UNL     1      -2.141   1.993   2.119  1.00  0.00    +0.001 A 
ATOM     21  C   UNL     1      -2.901   2.812   1.286  1.00  0.00    +0.000 A 
ENDBRANCH  12  16
ENDBRANCH   1   6
TORSDOF 3
