MODEL 1
REMARK VINA RESULT:    -8.038      0.000      0.000
REMARK INTER + INTRA:         -10.643
REMARK INTER:                  -9.448
REMARK INTRA:                  -1.195
REMARK UNBOUND:                -1.195
REMARK SMILES N#CC(C#N)=C(N)C(C#N)=C1C(=O)Nc2ncnc(-c3ccc(O)cc3)c21
REMARK SMILES IDX 8 1 9 2 10 3 11 4 12 5 13 6 14 7 15 8 16 9 17 10 18 11 19 12
REMARK SMILES IDX 27 13 6 15 1 16 2 17 3 18 4 19 5 20 7 21 20 24 21 25 26 26
REMARK SMILES IDX 22 27 25 28 23 29 24 30
REMARK H PARENT 14 14 7 22 7 23 24 31
ROOT
ATOM      1  C   UNL     1      19.948   0.627  51.116  1.00  0.00    +0.091 C 
ATOM      2  C   UNL     1      21.067   0.920  50.274  1.00  0.00    +0.102 C 
ATOM      3  N   UNL     1      21.942   1.132  49.543  1.00  0.00    -0.192 NA
ATOM      4  C   UNL     1      20.088   0.051  52.330  1.00  0.00    +0.073 C 
ATOM      5  C   UNL     1      18.901  -0.561  53.037  1.00  0.00    +0.259 C 
ATOM      6  O   UNL     1      17.723  -0.388  52.800  1.00  0.00    -0.269 OA
ATOM      7  N   UNL     1      19.443  -1.383  53.994  1.00  0.00    -0.306 N 
ATOM      8  C   UNL     1      20.822  -1.254  54.058  1.00  0.00    +0.145 A 
ATOM      9  N   UNL     1      21.551  -1.892  54.971  1.00  0.00    -0.218 NA
ATOM     10  C   UNL     1      22.839  -1.540  54.954  1.00  0.00    +0.224 A 
ATOM     11  N   UNL     1      23.387  -0.596  54.166  1.00  0.00    -0.236 NA
ATOM     12  C   UNL     1      22.579   0.048  53.282  1.00  0.00    +0.084 A 
ATOM     13  C   UNL     1      21.267  -0.329  53.125  1.00  0.00    +0.058 A 
ATOM     14  H   UNL     1      18.912  -1.938  54.648  1.00  0.00    +0.171 HD
ENDROOT
BRANCH   1  15
ATOM     15  C   UNL     1      18.634   0.923  50.496  1.00  0.00    +0.079 C 
ATOM     16  N   UNL     1      15.787   2.694  49.570  1.00  0.00    -0.192 NA
ATOM     17  C   UNL     1      16.819   2.466  50.048  1.00  0.00    +0.113 C 
ATOM     18  C   UNL     1      18.081   2.160  50.631  1.00  0.00    +0.153 C 
ATOM     19  C   UNL     1      18.738   3.197  51.357  1.00  0.00    +0.113 C 
ATOM     20  N   UNL     1      19.323   3.996  51.961  1.00  0.00    -0.192 NA
BRANCH  15  21
ATOM     21  N   UNL     1      18.058  -0.137  49.801  1.00  0.00    -0.396 N 
ATOM     22  H   UNL     1      18.683  -0.609  49.147  1.00  0.00    +0.156 HD
ATOM     23  H   UNL     1      17.567  -0.824  50.379  1.00  0.00    +0.156 HD
ENDBRANCH  15  21
ENDBRANCH   1  15
BRANCH  12  24
ATOM     24  C   UNL     1      23.200   1.227  52.666  1.00  0.00    +0.001 A 
ATOM     25  C   UNL     1      24.412   1.116  51.963  1.00  0.00    +0.014 A 
ATOM     26  C   UNL     1      22.638   2.510  52.817  1.00  0.00    +0.014 A 
ATOM     27  C   UNL     1      25.021   2.240  51.400  1.00  0.00    +0.047 A 
ATOM     28  C   UNL     1      23.245   3.636  52.252  1.00  0.00    +0.047 A 
ATOM     29  C   UNL     1      24.433   3.488  51.545  1.00  0.00    +0.115 A 
BRANCH  29  30
ATOM     30  O   UNL     1      25.062   4.558  50.983  1.00  0.00    -0.508 OA
ATOM     31  H   UNL     1      24.739   5.368  51.411  1.00  0.00    +0.293 HD
ENDBRANCH  29  30
ENDBRANCH  12  24
TORSDOF 4
ENDMDL
MODEL 2
REMARK VINA RESULT:    -7.808      2.616      5.959
REMARK INTER + INTRA:         -10.372
REMARK INTER:                  -9.194
REMARK INTRA:                  -1.178
REMARK UNBOUND:                -1.195
REMARK SMILES N#CC(C#N)=C(N)C(C#N)=C1C(=O)Nc2ncnc(-c3ccc(O)cc3)c21
REMARK SMILES IDX 8 1 9 2 10 3 11 4 12 5 13 6 14 7 15 8 16 9 17 10 18 11 19 12
REMARK SMILES IDX 27 13 6 15 1 16 2 17 3 18 4 19 5 20 7 21 20 24 21 25 26 26
REMARK SMILES IDX 22 27 25 28 23 29 24 30
REMARK H PARENT 14 14 7 22 7 23 24 31
ROOT
ATOM      1  C   UNL     1      23.822   3.625  51.301  1.00  0.00    +0.091 C 
ATOM      2  C   UNL     1      22.588   3.658  52.023  1.00  0.00    +0.102 C 
ATOM      3  N   UNL     1      21.598   3.746  52.621  1.00  0.00    -0.192 NA
ATOM      4  C   UNL     1      24.738   2.647  51.476  1.00  0.00    +0.073 C 
ATOM      5  C   UNL     1      26.154   2.815  50.978  1.00  0.00    +0.259 C 
ATOM      6  O   UNL     1      26.569   3.624  50.173  1.00  0.00    -0.269 OA
ATOM      7  N   UNL     1      26.884   1.870  51.657  1.00  0.00    -0.306 N 
ATOM      8  C   UNL     1      26.069   1.044  52.417  1.00  0.00    +0.145 A 
ATOM      9  N   UNL     1      26.551   0.002  53.091  1.00  0.00    -0.218 NA
ATOM     10  C   UNL     1      25.596  -0.745  53.654  1.00  0.00    +0.224 A 
ATOM     11  N   UNL     1      24.270  -0.553  53.529  1.00  0.00    -0.236 NA
ATOM     12  C   UNL     1      23.843   0.506  52.792  1.00  0.00    +0.084 A 
ATOM     13  C   UNL     1      24.740   1.414  52.280  1.00  0.00    +0.058 A 
ATOM     14  H   UNL     1      27.874   1.715  51.547  1.00  0.00    +0.171 HD
ENDROOT
BRANCH   1  15
ATOM     15  C   UNL     1      24.038   4.801  50.424  1.00  0.00    +0.079 C 
ATOM     16  N   UNL     1      24.019   6.798  47.576  1.00  0.00    -0.192 NA
ATOM     17  C   UNL     1      23.842   5.880  48.263  1.00  0.00    +0.113 C 
ATOM     18  C   UNL     1      23.640   4.764  49.123  1.00  0.00    +0.153 C 
ATOM     19  C   UNL     1      23.009   3.612  48.568  1.00  0.00    +0.113 C 
ATOM     20  N   UNL     1      22.502   2.645  48.178  1.00  0.00    -0.192 NA
BRANCH  15  21
ATOM     21  N   UNL     1      24.657   5.888  51.039  1.00  0.00    -0.396 N 
ATOM     22  H   UNL     1      24.193   6.784  50.888  1.00  0.00    +0.156 HD
ATOM     23  H   UNL     1      24.874   5.765  52.030  1.00  0.00    +0.156 HD
ENDBRANCH  15  21
ENDBRANCH   1  15
BRANCH  12  24
ATOM     24  C   UNL     1      22.406   0.478  52.496  1.00  0.00    +0.001 A 
ATOM     25  C   UNL     1      21.461   0.380  53.531  1.00  0.00    +0.014 A 
ATOM     26  C   UNL     1      21.935   0.481  51.168  1.00  0.00    +0.014 A 
ATOM     27  C   UNL     1      20.093   0.324  53.252  1.00  0.00    +0.047 A 
ATOM     28  C   UNL     1      20.566   0.427  50.887  1.00  0.00    +0.047 A 
ATOM     29  C   UNL     1      19.656   0.351  51.935  1.00  0.00    +0.115 A 
BRANCH  29  30
ATOM     30  O   UNL     1      18.314   0.290  51.708  1.00  0.00    -0.508 OA
ATOM     31  H   UNL     1      17.937   1.176  51.835  1.00  0.00    +0.293 HD
ENDBRANCH  29  30
ENDBRANCH  12  24
TORSDOF 4
ENDMDL
MODEL 3
REMARK VINA RESULT:    -7.784      2.763      3.941
REMARK INTER + INTRA:         -10.344
REMARK INTER:                  -9.321
REMARK INTRA:                  -1.023
REMARK UNBOUND:                -1.195
REMARK SMILES N#CC(C#N)=C(N)C(C#N)=C1C(=O)Nc2ncnc(-c3ccc(O)cc3)c21
REMARK SMILES IDX 8 1 9 2 10 3 11 4 12 5 13 6 14 7 15 8 16 9 17 10 18 11 19 12
REMARK SMILES IDX 27 13 6 15 1 16 2 17 3 18 4 19 5 20 7 21 20 24 21 25 26 26
REMARK SMILES IDX 22 27 25 28 23 29 24 30
REMARK H PARENT 14 14 7 22 7 23 24 31
ROOT
ATOM      1  C   UNL     1      22.848   3.371  51.402  1.00  0.00    +0.091 C 
ATOM      2  C   UNL     1      24.093   3.060  50.768  1.00  0.00    +0.102 C 
ATOM      3  N   UNL     1      25.079   2.833  50.202  1.00  0.00    -0.192 NA
ATOM      4  C   UNL     1      22.192   2.484  52.182  1.00  0.00    +0.073 C 
ATOM      5  C   UNL     1      20.741   2.699  52.546  1.00  0.00    +0.259 C 
ATOM      6  O   UNL     1      20.097   3.724  52.462  1.00  0.00    -0.269 OA
ATOM      7  N   UNL     1      20.295   1.470  52.968  1.00  0.00    -0.306 N 
ATOM      8  C   UNL     1      21.328   0.548  53.039  1.00  0.00    +0.145 A 
ATOM      9  N   UNL     1      21.145  -0.685  53.506  1.00  0.00    -0.218 NA
ATOM     10  C   UNL     1      22.282  -1.378  53.617  1.00  0.00    +0.224 A 
ATOM     11  N   UNL     1      23.518  -0.910  53.364  1.00  0.00    -0.236 NA
ATOM     12  C   UNL     1      23.640   0.373  52.929  1.00  0.00    +0.084 A 
ATOM     13  C   UNL     1      22.527   1.131  52.654  1.00  0.00    +0.058 A 
ATOM     14  H   UNL     1      19.360   1.274  53.290  1.00  0.00    +0.171 HD
ENDROOT
BRANCH   1  15
ATOM     15  C   UNL     1      22.309   4.706  51.048  1.00  0.00    +0.079 C 
ATOM     16  N   UNL     1      20.780   7.223  49.198  1.00  0.00    -0.192 NA
ATOM     17  C   UNL     1      21.195   6.176  49.476  1.00  0.00    +0.113 C 
ATOM     18  C   UNL     1      21.715   4.903  49.839  1.00  0.00    +0.153 C 
ATOM     19  C   UNL     1      21.590   3.847  48.888  1.00  0.00    +0.113 C 
ATOM     20  N   UNL     1      21.520   2.947  48.159  1.00  0.00    -0.192 NA
BRANCH  15  21
ATOM     21  N   UNL     1      22.465   5.683  52.028  1.00  0.00    -0.396 N 
ATOM     22  H   UNL     1      21.733   6.394  52.043  1.00  0.00    +0.156 HD
ATOM     23  H   UNL     1      22.634   5.332  52.974  1.00  0.00    +0.156 HD
ENDBRANCH  15  21
ENDBRANCH   1  15
BRANCH  12  24
ATOM     24  C   UNL     1      25.021   0.869  52.938  1.00  0.00    +0.001 A 
ATOM     25  C   UNL     1      26.024   0.217  52.202  1.00  0.00    +0.014 A 
ATOM     26  C   UNL     1      25.395   1.971  53.733  1.00  0.00    +0.014 A 
ATOM     27  C   UNL     1      27.346   0.669  52.230  1.00  0.00    +0.047 A 
ATOM     28  C   UNL     1      26.716   2.426  53.762  1.00  0.00    +0.047 A 
ATOM     29  C   UNL     1      27.681   1.770  53.005  1.00  0.00    +0.115 A 
BRANCH  29  30
ATOM     30  O   UNL     1      28.982   2.176  53.007  1.00  0.00    -0.508 OA
ATOM     31  H   UNL     1      29.125   2.763  52.247  1.00  0.00    +0.293 HD
ENDBRANCH  29  30
ENDBRANCH  12  24
TORSDOF 4
ENDMDL
MODEL 4
REMARK VINA RESULT:    -7.637      2.171      5.523
REMARK INTER + INTRA:         -10.172
REMARK INTER:                  -9.137
REMARK INTRA:                  -1.035
REMARK UNBOUND:                -1.195
REMARK SMILES N#CC(C#N)=C(N)C(C#N)=C1C(=O)Nc2ncnc(-c3ccc(O)cc3)c21
REMARK SMILES IDX 8 1 9 2 10 3 11 4 12 5 13 6 14 7 15 8 16 9 17 10 18 11 19 12
REMARK SMILES IDX 27 13 6 15 1 16 2 17 3 18 4 19 5 20 7 21 20 24 21 25 26 26
REMARK SMILES IDX 22 27 25 28 23 29 24 30
REMARK H PARENT 14 14 7 22 7 23 24 31
ROOT
ATOM      1  C   UNL     1      22.692   3.101  52.378  1.00  0.00    +0.091 C 
ATOM      2  C   UNL     1      21.287   3.370  52.328  1.00  0.00    +0.102 C 
ATOM      3  N   UNL     1      20.161   3.644  52.315  1.00  0.00    -0.192 NA
ATOM      4  C   UNL     1      23.187   1.917  52.799  1.00  0.00    +0.073 C 
ATOM      5  C   UNL     1      24.644   1.776  53.173  1.00  0.00    +0.259 C 
ATOM      6  O   UNL     1      25.557   2.527  52.902  1.00  0.00    -0.269 OA
ATOM      7  N   UNL     1      24.710   0.623  53.916  1.00  0.00    -0.306 N 
ATOM      8  C   UNL     1      23.494  -0.043  53.936  1.00  0.00    +0.145 A 
ATOM      9  N   UNL     1      23.345  -1.228  54.525  1.00  0.00    -0.218 NA
ATOM     10  C   UNL     1      22.138  -1.766  54.325  1.00  0.00    +0.224 A 
ATOM     11  N   UNL     1      21.160  -1.244  53.562  1.00  0.00    -0.236 NA
ATOM     12  C   UNL     1      21.391  -0.049  52.955  1.00  0.00    +0.084 A 
ATOM     13  C   UNL     1      22.546   0.653  53.200  1.00  0.00    +0.058 A 
ATOM     14  H   UNL     1      25.553   0.240  54.316  1.00  0.00    +0.171 HD
ENDROOT
BRANCH   1  15
ATOM     15  C   UNL     1      23.541   4.263  52.021  1.00  0.00    +0.079 C 
ATOM     16  N   UNL     1      25.421   6.460  50.089  1.00  0.00    -0.192 NA
ATOM     17  C   UNL     1      24.750   5.555  50.365  1.00  0.00    +0.113 C 
ATOM     18  C   UNL     1      23.932   4.450  50.730  1.00  0.00    +0.153 C 
ATOM     19  C   UNL     1      23.540   3.552  49.694  1.00  0.00    +0.113 C 
ATOM     20  N   UNL     1      23.189   2.784  48.899  1.00  0.00    -0.192 NA
BRANCH  15  21
ATOM     21  N   UNL     1      23.877   5.096  53.085  1.00  0.00    -0.396 N 
ATOM     22  H   UNL     1      24.878   5.176  53.265  1.00  0.00    +0.156 HD
ATOM     23  H   UNL     1      23.447   6.024  53.068  1.00  0.00    +0.156 HD
ENDBRANCH  15  21
ENDBRANCH   1  15
BRANCH  12  24
ATOM     24  C   UNL     1      20.384   0.303  51.947  1.00  0.00    +0.001 A 
ATOM     25  C   UNL     1      20.765   0.634  50.636  1.00  0.00    +0.014 A 
ATOM     26  C   UNL     1      19.017   0.386  52.279  1.00  0.00    +0.014 A 
ATOM     27  C   UNL     1      19.813   0.998  49.680  1.00  0.00    +0.047 A 
ATOM     28  C   UNL     1      18.062   0.748  51.324  1.00  0.00    +0.047 A 
ATOM     29  C   UNL     1      18.471   1.049  50.030  1.00  0.00    +0.115 A 
BRANCH  29  30
ATOM     30  O   UNL     1      17.575   1.412  49.069  1.00  0.00    -0.508 OA
ATOM     31  H   UNL     1      17.994   2.068  48.487  1.00  0.00    +0.293 HD
ENDBRANCH  29  30
ENDBRANCH  12  24
TORSDOF 4
ENDMDL
MODEL 5
REMARK VINA RESULT:    -7.118      2.966      6.179
REMARK INTER + INTRA:          -9.561
REMARK INTER:                  -8.582
REMARK INTRA:                  -0.979
REMARK UNBOUND:                -1.195
REMARK SMILES N#CC(C#N)=C(N)C(C#N)=C1C(=O)Nc2ncnc(-c3ccc(O)cc3)c21
REMARK SMILES IDX 8 1 9 2 10 3 11 4 12 5 13 6 14 7 15 8 16 9 17 10 18 11 19 12
REMARK SMILES IDX 27 13 6 15 1 16 2 17 3 18 4 19 5 20 7 21 20 24 21 25 26 26
REMARK SMILES IDX 22 27 25 28 23 29 24 30
REMARK H PARENT 14 14 7 22 7 23 24 31
ROOT
ATOM      1  C   UNL     1      24.444   2.107  53.187  1.00  0.00    +0.091 C 
ATOM      2  C   UNL     1      24.112   3.497  53.133  1.00  0.00    +0.102 C 
ATOM      3  N   UNL     1      23.876   4.633  53.142  1.00  0.00    -0.192 NA
ATOM      4  C   UNL     1      23.523   1.135  53.008  1.00  0.00    +0.073 C 
ATOM      5  C   UNL     1      23.815  -0.292  53.410  1.00  0.00    +0.259 C 
ATOM      6  O   UNL     1      24.895  -0.791  53.648  1.00  0.00    -0.269 OA
ATOM      7  N   UNL     1      22.585  -0.900  53.479  1.00  0.00    -0.306 N 
ATOM      8  C   UNL     1      21.574  -0.060  53.036  1.00  0.00    +0.145 A 
ATOM      9  N   UNL     1      20.310  -0.467  52.934  1.00  0.00    -0.218 NA
ATOM     10  C   UNL     1      19.511   0.442  52.368  1.00  0.00    +0.224 A 
ATOM     11  N   UNL     1      19.898   1.631  51.872  1.00  0.00    -0.236 NA
ATOM     12  C   UNL     1      21.211   1.970  51.972  1.00  0.00    +0.084 A 
ATOM     13  C   UNL     1      22.094   1.167  52.653  1.00  0.00    +0.058 A 
ATOM     14  H   UNL     1      22.431  -1.867  53.718  1.00  0.00    +0.171 HD
ENDROOT
BRANCH   1  15
ATOM     15  C   UNL     1      25.857   1.839  53.549  1.00  0.00    +0.079 C 
ATOM     16  N   UNL     1      29.304   1.513  53.225  1.00  0.00    -0.192 NA
ATOM     17  C   UNL     1      28.200   1.730  52.942  1.00  0.00    +0.113 C 
ATOM     18  C   UNL     1      26.839   1.986  52.618  1.00  0.00    +0.153 C 
ATOM     19  C   UNL     1      26.547   2.400  51.285  1.00  0.00    +0.113 C 
ATOM     20  N   UNL     1      26.244   2.738  50.218  1.00  0.00    -0.192 NA
BRANCH  15  21
ATOM     21  N   UNL     1      26.062   1.444  54.869  1.00  0.00    -0.396 N 
ATOM     22  H   UNL     1      25.631   0.553  55.120  1.00  0.00    +0.156 HD
ATOM     23  H   UNL     1      27.033   1.468  55.188  1.00  0.00    +0.156 HD
ENDBRANCH  15  21
ENDBRANCH   1  15
BRANCH  12  24
ATOM     24  C   UNL     1      21.578   3.148  51.177  1.00  0.00    +0.001 A 
ATOM     25  C   UNL     1      20.979   4.395  51.422  1.00  0.00    +0.014 A 
ATOM     26  C   UNL     1      22.488   3.050  50.106  1.00  0.00    +0.014 A 
ATOM     27  C   UNL     1      21.304   5.513  50.649  1.00  0.00    +0.047 A 
ATOM     28  C   UNL     1      22.817   4.167  49.332  1.00  0.00    +0.047 A 
ATOM     29  C   UNL     1      22.221   5.391  49.614  1.00  0.00    +0.115 A 
BRANCH  29  30
ATOM     30  O   UNL     1      22.507   6.506  48.883  1.00  0.00    -0.508 OA
ATOM     31  H   UNL     1      22.102   7.274  49.317  1.00  0.00    +0.293 HD
ENDBRANCH  29  30
ENDBRANCH  12  24
TORSDOF 4
ENDMDL
MODEL 6
REMARK VINA RESULT:    -6.888      2.520      5.400
REMARK INTER + INTRA:          -9.291
REMARK INTER:                  -8.140
REMARK INTRA:                  -1.152
REMARK UNBOUND:                -1.195
REMARK SMILES N#CC(C#N)=C(N)C(C#N)=C1C(=O)Nc2ncnc(-c3ccc(O)cc3)c21
REMARK SMILES IDX 8 1 9 2 10 3 11 4 12 5 13 6 14 7 15 8 16 9 17 10 18 11 19 12
REMARK SMILES IDX 27 13 6 15 1 16 2 17 3 18 4 19 5 20 7 21 20 24 21 25 26 26
REMARK SMILES IDX 22 27 25 28 23 29 24 30
REMARK H PARENT 14 14 7 22 7 23 24 31
ROOT
ATOM      1  C   UNL     1      22.001   3.929  50.915  1.00  0.00    +0.091 C 
ATOM      2  C   UNL     1      21.194   3.665  52.067  1.00  0.00    +0.102 C 
ATOM      3  N   UNL     1      20.530   3.512  53.005  1.00  0.00    -0.192 NA
ATOM      4  C   UNL     1      23.205   3.346  50.727  1.00  0.00    +0.073 C 
ATOM      5  C   UNL     1      24.178   3.892  49.708  1.00  0.00    +0.259 C 
ATOM      6  O   UNL     1      23.948   4.658  48.795  1.00  0.00    -0.269 OA
ATOM      7  N   UNL     1      25.394   3.356  50.055  1.00  0.00    -0.306 N 
ATOM      8  C   UNL     1      25.272   2.434  51.084  1.00  0.00    +0.145 A 
ATOM      9  N   UNL     1      26.308   1.725  51.527  1.00  0.00    -0.218 NA
ATOM     10  C   UNL     1      25.965   0.802  52.429  1.00  0.00    +0.224 A 
ATOM     11  N   UNL     1      24.713   0.525  52.836  1.00  0.00    -0.236 NA
ATOM     12  C   UNL     1      23.694   1.259  52.314  1.00  0.00    +0.084 A 
ATOM     13  C   UNL     1      23.947   2.321  51.479  1.00  0.00    +0.058 A 
ATOM     14  H   UNL     1      26.260   3.520  49.565  1.00  0.00    +0.171 HD
ENDROOT
BRANCH   1  15
ATOM     15  C   UNL     1      21.441   4.961  50.011  1.00  0.00    +0.079 C 
ATOM     16  N   UNL     1      19.675   6.377  47.370  1.00  0.00    -0.192 NA
ATOM     17  C   UNL     1      20.107   5.569  48.081  1.00  0.00    +0.113 C 
ATOM     18  C   UNL     1      20.651   4.595  48.964  1.00  0.00    +0.153 C 
ATOM     19  C   UNL     1      20.338   3.227  48.708  1.00  0.00    +0.113 C 
ATOM     20  N   UNL     1      20.123   2.098  48.554  1.00  0.00    -0.192 NA
BRANCH  15  21
ATOM     21  N   UNL     1      21.788   6.273  50.328  1.00  0.00    -0.396 N 
ATOM     22  H   UNL     1      21.146   6.982  49.972  1.00  0.00    +0.156 HD
ATOM     23  H   UNL     1      21.992   6.445  51.315  1.00  0.00    +0.156 HD
ENDBRANCH  15  21
ENDBRANCH   1  15
BRANCH  12  24
ATOM     24  C   UNL     1      22.363   0.714  52.611  1.00  0.00    +0.001 A 
ATOM     25  C   UNL     1      21.973   0.451  53.934  1.00  0.00    +0.014 A 
ATOM     26  C   UNL     1      21.467   0.378  51.577  1.00  0.00    +0.014 A 
ATOM     27  C   UNL     1      20.718  -0.094  54.219  1.00  0.00    +0.047 A 
ATOM     28  C   UNL     1      20.210  -0.167  51.859  1.00  0.00    +0.047 A 
ATOM     29  C   UNL     1      19.846  -0.395  53.181  1.00  0.00    +0.115 A 
BRANCH  29  30
ATOM     30  O   UNL     1      18.634  -0.929  53.503  1.00  0.00    -0.508 OA
ATOM     31  H   UNL     1      18.686  -1.299  54.399  1.00  0.00    +0.293 HD
ENDBRANCH  29  30
ENDBRANCH  12  24
TORSDOF 4
ENDMDL
MODEL 7
REMARK VINA RESULT:    -6.846      2.190      6.733
REMARK INTER + INTRA:          -9.242
REMARK INTER:                  -8.080
REMARK INTRA:                  -1.162
REMARK UNBOUND:                -1.195
REMARK SMILES N#CC(C#N)=C(N)C(C#N)=C1C(=O)Nc2ncnc(-c3ccc(O)cc3)c21
REMARK SMILES IDX 8 1 9 2 10 3 11 4 12 5 13 6 14 7 15 8 16 9 17 10 18 11 19 12
REMARK SMILES IDX 27 13 6 15 1 16 2 17 3 18 4 19 5 20 7 21 20 24 21 25 26 26
REMARK SMILES IDX 22 27 25 28 23 29 24 30
REMARK H PARENT 14 14 7 22 7 23 24 31
ROOT
ATOM      1  C   UNL     1      22.916   1.891  51.710  1.00  0.00    +0.091 C 
ATOM      2  C   UNL     1      22.184   1.229  50.675  1.00  0.00    +0.102 C 
ATOM      3  N   UNL     1      21.642   0.662  49.820  1.00  0.00    -0.192 NA
ATOM      4  C   UNL     1      22.825   3.222  51.924  1.00  0.00    +0.073 C 
ATOM      5  C   UNL     1      23.849   3.942  52.770  1.00  0.00    +0.259 C 
ATOM      6  O   UNL     1      24.646   3.457  53.546  1.00  0.00    -0.269 OA
ATOM      7  N   UNL     1      23.705   5.269  52.448  1.00  0.00    -0.306 N 
ATOM      8  C   UNL     1      22.624   5.477  51.605  1.00  0.00    +0.145 A 
ATOM      9  N   UNL     1      22.242   6.697  51.231  1.00  0.00    -0.218 NA
ATOM     10  C   UNL     1      21.106   6.698  50.527  1.00  0.00    +0.224 A 
ATOM     11  N   UNL     1      20.348   5.620  50.253  1.00  0.00    -0.236 NA
ATOM     12  C   UNL     1      20.773   4.408  50.700  1.00  0.00    +0.084 A 
ATOM     13  C   UNL     1      21.993   4.275  51.318  1.00  0.00    +0.058 A 
ATOM     14  H   UNL     1      24.243   6.023  52.848  1.00  0.00    +0.171 HD
ENDROOT
BRANCH   1  15
ATOM     15  C   UNL     1      23.844   1.005  52.453  1.00  0.00    +0.079 C 
ATOM     16  N   UNL     1      24.993  -1.271  54.819  1.00  0.00    -0.192 NA
ATOM     17  C   UNL     1      24.264  -0.584  54.234  1.00  0.00    +0.113 C 
ATOM     18  C   UNL     1      23.390   0.270  53.505  1.00  0.00    +0.153 C 
ATOM     19  C   UNL     1      22.027   0.324  53.920  1.00  0.00    +0.113 C 
ATOM     20  N   UNL     1      20.907   0.414  54.208  1.00  0.00    -0.192 NA
BRANCH  15  21
ATOM     21  N   UNL     1      25.157   1.002  51.986  1.00  0.00    -0.396 N 
ATOM     22  H   UNL     1      25.855   0.723  52.675  1.00  0.00    +0.156 HD
ATOM     23  H   UNL     1      25.308   0.501  51.107  1.00  0.00    +0.156 HD
ENDBRANCH  15  21
ENDBRANCH   1  15
BRANCH  12  24
ATOM     24  C   UNL     1      19.763   3.350  50.586  1.00  0.00    +0.001 A 
ATOM     25  C   UNL     1      19.205   3.020  49.339  1.00  0.00    +0.014 A 
ATOM     26  C   UNL     1      19.275   2.683  51.726  1.00  0.00    +0.014 A 
ATOM     27  C   UNL     1      18.222   2.033  49.230  1.00  0.00    +0.047 A 
ATOM     28  C   UNL     1      18.292   1.694  51.619  1.00  0.00    +0.047 A 
ATOM     29  C   UNL     1      17.776   1.377  50.368  1.00  0.00    +0.115 A 
BRANCH  29  30
ATOM     30  O   UNL     1      16.813   0.424  50.217  1.00  0.00    -0.508 OA
ATOM     31  H   UNL     1      17.048  -0.138  49.461  1.00  0.00    +0.293 HD
ENDBRANCH  29  30
ENDBRANCH  12  24
TORSDOF 4
ENDMDL
MODEL 8
REMARK VINA RESULT:    -6.761      3.039      6.258
REMARK INTER + INTRA:          -9.142
REMARK INTER:                  -7.956
REMARK INTRA:                  -1.186
REMARK UNBOUND:                -1.195
REMARK SMILES N#CC(C#N)=C(N)C(C#N)=C1C(=O)Nc2ncnc(-c3ccc(O)cc3)c21
REMARK SMILES IDX 8 1 9 2 10 3 11 4 12 5 13 6 14 7 15 8 16 9 17 10 18 11 19 12
REMARK SMILES IDX 27 13 6 15 1 16 2 17 3 18 4 19 5 20 7 21 20 24 21 25 26 26
REMARK SMILES IDX 22 27 25 28 23 29 24 30
REMARK H PARENT 14 14 7 22 7 23 24 31
ROOT
ATOM      1  C   UNL     1      22.448   2.674  51.535  1.00  0.00    +0.091 C 
ATOM      2  C   UNL     1      22.649   3.981  52.082  1.00  0.00    +0.102 C 
ATOM      3  N   UNL     1      22.783   5.021  52.576  1.00  0.00    -0.192 NA
ATOM      4  C   UNL     1      21.994   2.478  50.278  1.00  0.00    +0.073 C 
ATOM      5  C   UNL     1      21.462   1.130  49.849  1.00  0.00    +0.259 C 
ATOM      6  O   UNL     1      21.619   0.059  50.399  1.00  0.00    -0.269 OA
ATOM      7  N   UNL     1      20.734   1.381  48.712  1.00  0.00    -0.306 N 
ATOM      8  C   UNL     1      20.860   2.700  48.305  1.00  0.00    +0.145 A 
ATOM      9  N   UNL     1      20.310   3.149  47.178  1.00  0.00    -0.218 NA
ATOM     10  C   UNL     1      20.650   4.409  46.894  1.00  0.00    +0.224 A 
ATOM     11  N   UNL     1      21.509   5.171  47.597  1.00  0.00    -0.236 NA
ATOM     12  C   UNL     1      22.068   4.639  48.716  1.00  0.00    +0.084 A 
ATOM     13  C   UNL     1      21.686   3.400  49.172  1.00  0.00    +0.058 A 
ATOM     14  H   UNL     1      20.249   0.682  48.170  1.00  0.00    +0.171 HD
ENDROOT
BRANCH   1  15
ATOM     15  C   UNL     1      22.691   1.575  52.499  1.00  0.00    +0.079 C 
ATOM     16  N   UNL     1      24.390  -0.850  54.325  1.00  0.00    -0.192 NA
ATOM     17  C   UNL     1      24.202   0.016  53.576  1.00  0.00    +0.113 C 
ATOM     18  C   UNL     1      23.947   1.074  52.660  1.00  0.00    +0.153 C 
ATOM     19  C   UNL     1      25.054   1.585  51.921  1.00  0.00    +0.113 C 
ATOM     20  N   UNL     1      25.912   2.044  51.289  1.00  0.00    -0.192 NA
BRANCH  15  21
ATOM     21  N   UNL     1      21.562   1.132  53.185  1.00  0.00    -0.396 N 
ATOM     22  H   UNL     1      21.423   1.562  54.100  1.00  0.00    +0.156 HD
ATOM     23  H   UNL     1      20.690   1.150  52.650  1.00  0.00    +0.156 HD
ENDBRANCH  15  21
ENDBRANCH   1  15
BRANCH  12  24
ATOM     24  C   UNL     1      23.176   5.435  49.257  1.00  0.00    +0.001 A 
ATOM     25  C   UNL     1      22.964   6.749  49.706  1.00  0.00    +0.014 A 
ATOM     26  C   UNL     1      24.492   4.931  49.280  1.00  0.00    +0.014 A 
ATOM     27  C   UNL     1      24.022   7.521  50.195  1.00  0.00    +0.047 A 
ATOM     28  C   UNL     1      25.551   5.701  49.771  1.00  0.00    +0.047 A 
ATOM     29  C   UNL     1      25.304   6.990  50.227  1.00  0.00    +0.115 A 
BRANCH  29  30
ATOM     30  O   UNL     1      26.307   7.778  50.708  1.00  0.00    -0.508 OA
ATOM     31  H   UNL     1      26.237   7.814  51.676  1.00  0.00    +0.293 HD
ENDBRANCH  29  30
ENDBRANCH  12  24
TORSDOF 4
ENDMDL
MODEL 9
REMARK VINA RESULT:    -6.615      3.466      6.212
REMARK INTER + INTRA:          -8.970
REMARK INTER:                  -7.953
REMARK INTRA:                  -1.017
REMARK UNBOUND:                -1.195
REMARK SMILES N#CC(C#N)=C(N)C(C#N)=C1C(=O)Nc2ncnc(-c3ccc(O)cc3)c21
REMARK SMILES IDX 8 1 9 2 10 3 11 4 12 5 13 6 14 7 15 8 16 9 17 10 18 11 19 12
REMARK SMILES IDX 27 13 6 15 1 16 2 17 3 18 4 19 5 20 7 21 20 24 21 25 26 26
REMARK SMILES IDX 22 27 25 28 23 29 24 30
REMARK H PARENT 14 14 7 22 7 23 24 31
ROOT
ATOM      1  C   UNL     1      22.354   3.160  50.759  1.00  0.00    +0.091 C 
ATOM      2  C   UNL     1      22.517   4.455  51.344  1.00  0.00    +0.102 C 
ATOM      3  N   UNL     1      22.609   5.488  51.863  1.00  0.00    -0.192 NA
ATOM      4  C   UNL     1      22.149   2.984  49.436  1.00  0.00    +0.073 C 
ATOM      5  C   UNL     1      21.637   1.667  48.900  1.00  0.00    +0.259 C 
ATOM      6  O   UNL     1      21.620   0.592  49.463  1.00  0.00    -0.269 OA
ATOM      7  N   UNL     1      21.166   1.954  47.643  1.00  0.00    -0.306 N 
ATOM      8  C   UNL     1      21.445   3.263  47.278  1.00  0.00    +0.145 A 
ATOM      9  N   UNL     1      21.157   3.737  46.067  1.00  0.00    -0.218 NA
ATOM     10  C   UNL     1      21.619   4.974  45.865  1.00  0.00    +0.224 A 
ATOM     11  N   UNL     1      22.363   5.689  46.730  1.00  0.00    -0.236 NA
ATOM     12  C   UNL     1      22.656   5.130  47.935  1.00  0.00    +0.084 A 
ATOM     13  C   UNL     1      22.121   3.917  48.297  1.00  0.00    +0.058 A 
ATOM     14  H   UNL     1      20.760   1.282  47.010  1.00  0.00    +0.171 HD
ENDROOT
BRANCH   1  15
ATOM     15  C   UNL     1      22.337   2.052  51.745  1.00  0.00    +0.079 C 
ATOM     16  N   UNL     1      21.173  -0.102  54.215  1.00  0.00    -0.192 NA
ATOM     17  C   UNL     1      21.182   0.760  53.439  1.00  0.00    +0.113 C 
ATOM     18  C   UNL     1      21.219   1.815  52.484  1.00  0.00    +0.153 C 
ATOM     19  C   UNL     1      20.044   2.609  52.336  1.00  0.00    +0.113 C 
ATOM     20  N   UNL     1      19.121   3.292  52.169  1.00  0.00    -0.192 NA
BRANCH  15  21
ATOM     21  N   UNL     1      23.520   1.321  51.829  1.00  0.00    -0.396 N 
ATOM     22  H   UNL     1      24.279   1.792  52.320  1.00  0.00    +0.156 HD
ATOM     23  H   UNL     1      23.418   0.363  52.172  1.00  0.00    +0.156 HD
ENDBRANCH  15  21
ENDBRANCH   1  15
BRANCH  12  24
ATOM     24  C   UNL     1      23.678   5.864  48.691  1.00  0.00    +0.001 A 
ATOM     25  C   UNL     1      23.439   7.174  49.138  1.00  0.00    +0.014 A 
ATOM     26  C   UNL     1      24.948   5.303  48.933  1.00  0.00    +0.014 A 
ATOM     27  C   UNL     1      24.420   7.887  49.833  1.00  0.00    +0.047 A 
ATOM     28  C   UNL     1      25.930   6.014  49.630  1.00  0.00    +0.047 A 
ATOM     29  C   UNL     1      25.655   7.301  50.077  1.00  0.00    +0.115 A 
BRANCH  29  30
ATOM     30  O   UNL     1      26.583   8.032  50.755  1.00  0.00    -0.508 OA
ATOM     31  H   UNL     1      27.385   7.494  50.860  1.00  0.00    +0.293 HD
ENDBRANCH  29  30
ENDBRANCH  12  24
TORSDOF 4
ENDMDL
