MODEL 1
REMARK VINA RESULT:    -8.128      0.000      0.000
REMARK INTER + INTRA:         -11.131
REMARK INTER:                 -10.266
REMARK INTRA:                  -0.865
REMARK UNBOUND:                -0.865
REMARK SMILES CN(c1ccccc1)c1ccc(-c2ccc(O)c([N+](=O)[O-])c2)[nH]1
REMARK SMILES IDX 13 1 14 2 15 3 16 4 18 5 22 6 12 7 9 8 10 9 23 10 11 11 2 13
REMARK SMILES IDX 1 14 3 15 4 16 8 17 5 18 7 19 6 20 19 21 20 22 21 23 17 24
REMARK H PARENT 23 12 17 25
ROOT
ATOM      1  C   UNL     1      22.827   0.659  52.565  1.00  0.00    +0.005 A 
ATOM      2  C   UNL     1      21.645   0.106  53.073  1.00  0.00    +0.014 A 
ATOM      3  C   UNL     1      21.672  -0.765  54.167  1.00  0.00    +0.054 A 
ATOM      4  C   UNL     1      22.883  -1.098  54.770  1.00  0.00    +0.194 A 
ATOM      5  C   UNL     1      24.074  -0.558  54.269  1.00  0.00    +0.311 A 
ATOM      6  C   UNL     1      24.045   0.318  53.169  1.00  0.00    +0.100 A 
ENDROOT
BRANCH   1   7
ATOM      7  C   UNL     1      22.804   1.571  51.420  1.00  0.00    +0.047 A 
ATOM      8  C   UNL     1      23.196   3.477  50.244  1.00  0.00    +0.110 A 
ATOM      9  C   UNL     1      22.565   2.582  49.403  1.00  0.00    +0.047 A 
ATOM     10  N   UNL     1      23.343   2.840  51.453  1.00  0.00    -0.341 N 
ATOM     11  C   UNL     1      22.316   1.396  50.136  1.00  0.00    +0.030 A 
ATOM     12  H   UNL     1      23.846   3.229  52.235  1.00  0.00    +0.168 HD
BRANCH   8  13
ATOM     13  N   UNL     1      23.666   4.750  50.052  1.00  0.00    -0.331 N 
ATOM     14  C   UNL     1      22.688   5.824  49.838  1.00  0.00    +0.152 C 
BRANCH  13  15
ATOM     15  C   UNL     1      24.969   4.988  49.536  1.00  0.00    +0.042 A 
ATOM     16  C   UNL     1      25.269   6.230  48.945  1.00  0.00    +0.026 A 
ATOM     17  C   UNL     1      25.996   4.030  49.562  1.00  0.00    +0.026 A 
ATOM     18  C   UNL     1      26.532   6.507  48.412  1.00  0.00    +0.002 A 
ATOM     19  C   UNL     1      27.263   4.302  49.031  1.00  0.00    +0.002 A 
ATOM     20  C   UNL     1      27.529   5.540  48.457  1.00  0.00    +0.000 A 
ENDBRANCH  13  15
ENDBRANCH   8  13
ENDBRANCH   1   7
BRANCH   5  21
ATOM     21  N   UNL     1      25.366  -0.889  54.873  1.00  0.00    +0.066 N 
ATOM     22  O   UNL     1      26.358  -0.904  54.127  1.00  0.00    -0.258 OA
ATOM     23  O   UNL     1      25.399  -1.134  56.086  1.00  0.00    -0.258 OA
ENDBRANCH   5  21
BRANCH   4  24
ATOM     24  O   UNL     1      22.787  -1.956  55.831  1.00  0.00    -0.502 OA
ATOM     25  H   UNL     1      22.538  -2.851  55.516  1.00  0.00    +0.293 HD
ENDBRANCH   4  24
TORSDOF 5
ENDMDL
MODEL 2
REMARK VINA RESULT:    -7.855      3.904      6.003
REMARK INTER + INTRA:         -10.787
REMARK INTER:                 -10.185
REMARK INTRA:                  -0.602
REMARK UNBOUND:                -0.865
REMARK SMILES CN(c1ccccc1)c1ccc(-c2ccc(O)c([N+](=O)[O-])c2)[nH]1
REMARK SMILES IDX 13 1 14 2 15 3 16 4 18 5 22 6 12 7 9 8 10 9 23 10 11 11 2 13
REMARK SMILES IDX 1 14 3 15 4 16 8 17 5 18 7 19 6 20 19 21 20 22 21 23 17 24
REMARK H PARENT 23 12 17 25
ROOT
ATOM      1  C   UNL     1      22.219   0.211  52.901  1.00  0.00    +0.005 A 
ATOM      2  C   UNL     1      22.116  -0.753  53.913  1.00  0.00    +0.014 A 
ATOM      3  C   UNL     1      20.883  -1.335  54.225  1.00  0.00    +0.054 A 
ATOM      4  C   UNL     1      19.734  -0.963  53.532  1.00  0.00    +0.194 A 
ATOM      5  C   UNL     1      19.821   0.003  52.523  1.00  0.00    +0.311 A 
ATOM      6  C   UNL     1      21.060   0.588  52.208  1.00  0.00    +0.100 A 
ENDROOT
BRANCH   1   7
ATOM      7  C   UNL     1      23.507   0.823  52.569  1.00  0.00    +0.047 A 
ATOM      8  C   UNL     1      25.736   1.245  52.726  1.00  0.00    +0.110 A 
ATOM      9  C   UNL     1      25.240   1.974  51.664  1.00  0.00    +0.047 A 
ATOM     10  N   UNL     1      24.675   0.545  53.248  1.00  0.00    -0.341 N 
ATOM     11  C   UNL     1      23.851   1.715  51.568  1.00  0.00    +0.030 A 
ATOM     12  H   UNL     1      24.759  -0.136  53.987  1.00  0.00    +0.168 HD
BRANCH   8  13
ATOM     13  N   UNL     1      26.996   1.115  53.248  1.00  0.00    -0.331 N 
ATOM     14  C   UNL     1      27.844   2.311  53.313  1.00  0.00    +0.152 C 
BRANCH  13  15
ATOM     15  C   UNL     1      27.682  -0.130  53.226  1.00  0.00    +0.042 A 
ATOM     16  C   UNL     1      29.028  -0.192  53.636  1.00  0.00    +0.026 A 
ATOM     17  C   UNL     1      27.092  -1.328  52.792  1.00  0.00    +0.026 A 
ATOM     18  C   UNL     1      29.748  -1.390  53.621  1.00  0.00    +0.002 A 
ATOM     19  C   UNL     1      27.808  -2.531  52.776  1.00  0.00    +0.002 A 
ATOM     20  C   UNL     1      29.136  -2.561  53.190  1.00  0.00    +0.000 A 
ENDBRANCH  13  15
ENDBRANCH   8  13
ENDBRANCH   1   7
BRANCH   5  21
ATOM     21  N   UNL     1      18.633   0.423  51.776  1.00  0.00    +0.066 N 
ATOM     22  O   UNL     1      17.918  -0.469  51.292  1.00  0.00    -0.258 OA
ATOM     23  O   UNL     1      18.408   1.636  51.669  1.00  0.00    -0.258 OA
ENDBRANCH   5  21
BRANCH   4  24
ATOM     24  O   UNL     1      18.588  -1.600  53.924  1.00  0.00    -0.502 OA
ATOM     25  H   UNL     1      17.808  -1.042  53.719  1.00  0.00    +0.293 HD
ENDBRANCH   4  24
TORSDOF 5
ENDMDL
MODEL 3
REMARK VINA RESULT:    -7.799      1.133      1.655
REMARK INTER + INTRA:         -10.716
REMARK INTER:                  -9.882
REMARK INTRA:                  -0.833
REMARK UNBOUND:                -0.865
REMARK SMILES CN(c1ccccc1)c1ccc(-c2ccc(O)c([N+](=O)[O-])c2)[nH]1
REMARK SMILES IDX 13 1 14 2 15 3 16 4 18 5 22 6 12 7 9 8 10 9 23 10 11 11 2 13
REMARK SMILES IDX 1 14 3 15 4 16 8 17 5 18 7 19 6 20 19 21 20 22 21 23 17 24
REMARK H PARENT 23 12 17 25
ROOT
ATOM      1  C   UNL     1      24.139   0.966  52.781  1.00  0.00    +0.005 A 
ATOM      2  C   UNL     1      23.125   0.138  53.280  1.00  0.00    +0.014 A 
ATOM      3  C   UNL     1      23.381  -0.768  54.314  1.00  0.00    +0.054 A 
ATOM      4  C   UNL     1      24.657  -0.862  54.866  1.00  0.00    +0.194 A 
ATOM      5  C   UNL     1      25.682  -0.045  54.373  1.00  0.00    +0.311 A 
ATOM      6  C   UNL     1      25.423   0.865  53.334  1.00  0.00    +0.100 A 
ENDROOT
BRANCH   1   7
ATOM      7  C   UNL     1      23.876   1.916  51.699  1.00  0.00    +0.047 A 
ATOM      8  C   UNL     1      23.989   3.874  50.548  1.00  0.00    +0.110 A 
ATOM      9  C   UNL     1      23.234   2.988  49.806  1.00  0.00    +0.047 A 
ATOM     10  N   UNL     1      24.380   3.200  51.681  1.00  0.00    -0.341 N 
ATOM     11  C   UNL     1      23.159   1.770  50.524  1.00  0.00    +0.030 A 
ATOM     12  H   UNL     1      25.011   3.578  52.369  1.00  0.00    +0.168 HD
BRANCH   8  13
ATOM     13  N   UNL     1      24.382   5.167  50.322  1.00  0.00    -0.331 N 
ATOM     14  C   UNL     1      23.347   6.207  50.281  1.00  0.00    +0.152 C 
BRANCH  13  15
ATOM     15  C   UNL     1      25.586   5.465  49.627  1.00  0.00    +0.042 A 
ATOM     16  C   UNL     1      26.489   4.428  49.322  1.00  0.00    +0.026 A 
ATOM     17  C   UNL     1      25.949   6.763  49.234  1.00  0.00    +0.026 A 
ATOM     18  C   UNL     1      27.692   4.673  48.652  1.00  0.00    +0.002 A 
ATOM     19  C   UNL     1      27.151   7.014  48.562  1.00  0.00    +0.002 A 
ATOM     20  C   UNL     1      28.022   5.968  48.272  1.00  0.00    +0.000 A 
ENDBRANCH  13  15
ENDBRANCH   8  13
ENDBRANCH   1   7
BRANCH   5  21
ATOM     21  N   UNL     1      27.036  -0.120  54.925  1.00  0.00    +0.066 N 
ATOM     22  O   UNL     1      27.959  -0.392  54.140  1.00  0.00    -0.258 OA
ATOM     23  O   UNL     1      27.187   0.090  56.136  1.00  0.00    -0.258 OA
ENDBRANCH   5  21
BRANCH   4  24
ATOM     24  O   UNL     1      24.788  -1.781  55.871  1.00  0.00    -0.502 OA
ATOM     25  H   UNL     1      25.471  -2.442  55.633  1.00  0.00    +0.293 HD
ENDBRANCH   4  24
TORSDOF 5
ENDMDL
MODEL 4
REMARK VINA RESULT:    -7.762      3.641      6.181
REMARK INTER + INTRA:         -10.668
REMARK INTER:                  -9.875
REMARK INTRA:                  -0.794
REMARK UNBOUND:                -0.865
REMARK SMILES CN(c1ccccc1)c1ccc(-c2ccc(O)c([N+](=O)[O-])c2)[nH]1
REMARK SMILES IDX 13 1 14 2 15 3 16 4 18 5 22 6 12 7 9 8 10 9 23 10 11 11 2 13
REMARK SMILES IDX 1 14 3 15 4 16 8 17 5 18 7 19 6 20 19 21 20 22 21 23 17 24
REMARK H PARENT 23 12 17 25
ROOT
ATOM      1  C   UNL     1      26.418   0.973  52.989  1.00  0.00    +0.005 A 
ATOM      2  C   UNL     1      27.504   1.730  53.450  1.00  0.00    +0.014 A 
ATOM      3  C   UNL     1      28.735   1.124  53.724  1.00  0.00    +0.054 A 
ATOM      4  C   UNL     1      28.899  -0.247  53.543  1.00  0.00    +0.194 A 
ATOM      5  C   UNL     1      27.821  -1.016  53.089  1.00  0.00    +0.311 A 
ATOM      6  C   UNL     1      26.584  -0.407  52.813  1.00  0.00    +0.100 A 
ENDROOT
BRANCH   1   7
ATOM      7  C   UNL     1      25.128   1.602  52.700  1.00  0.00    +0.047 A 
ATOM      8  C   UNL     1      23.021   1.789  51.865  1.00  0.00    +0.110 A 
ATOM      9  C   UNL     1      23.309   2.951  52.553  1.00  0.00    +0.047 A 
ATOM     10  N   UNL     1      24.128   0.982  51.980  1.00  0.00    -0.341 N 
ATOM     11  C   UNL     1      24.623   2.838  53.069  1.00  0.00    +0.030 A 
ATOM     12  H   UNL     1      24.170   0.034  51.641  1.00  0.00    +0.168 HD
BRANCH   8  13
ATOM     13  N   UNL     1      21.905   1.368  51.191  1.00  0.00    -0.331 N 
ATOM     14  C   UNL     1      21.498   2.112  49.993  1.00  0.00    +0.152 C 
BRANCH  13  15
ATOM     15  C   UNL     1      20.874   0.640  51.847  1.00  0.00    +0.042 A 
ATOM     16  C   UNL     1      21.157  -0.042  53.046  1.00  0.00    +0.026 A 
ATOM     17  C   UNL     1      19.564   0.540  51.350  1.00  0.00    +0.026 A 
ATOM     18  C   UNL     1      20.181  -0.781  53.721  1.00  0.00    +0.002 A 
ATOM     19  C   UNL     1      18.583  -0.198  52.022  1.00  0.00    +0.002 A 
ATOM     20  C   UNL     1      18.892  -0.858  53.207  1.00  0.00    +0.000 A 
ENDBRANCH  13  15
ENDBRANCH   8  13
ENDBRANCH   1   7
BRANCH   5  21
ATOM     21  N   UNL     1      27.955  -2.461  52.892  1.00  0.00    +0.066 N 
ATOM     22  O   UNL     1      27.181  -3.002  52.085  1.00  0.00    -0.258 OA
ATOM     23  O   UNL     1      28.827  -3.061  53.534  1.00  0.00    -0.258 OA
ENDBRANCH   5  21
BRANCH   4  24
ATOM     24  O   UNL     1      30.146  -0.726  53.842  1.00  0.00    -0.502 OA
ATOM     25  H   UNL     1      30.743   0.016  54.071  1.00  0.00    +0.293 HD
ENDBRANCH   4  24
TORSDOF 5
ENDMDL
MODEL 5
REMARK VINA RESULT:    -7.628      3.033      4.499
REMARK INTER + INTRA:         -10.499
REMARK INTER:                  -9.765
REMARK INTRA:                  -0.734
REMARK UNBOUND:                -0.865
REMARK SMILES CN(c1ccccc1)c1ccc(-c2ccc(O)c([N+](=O)[O-])c2)[nH]1
REMARK SMILES IDX 13 1 14 2 15 3 16 4 18 5 22 6 12 7 9 8 10 9 23 10 11 11 2 13
REMARK SMILES IDX 1 14 3 15 4 16 8 17 5 18 7 19 6 20 19 21 20 22 21 23 17 24
REMARK H PARENT 23 12 17 25
ROOT
ATOM      1  C   UNL     1      26.952   1.278  52.914  1.00  0.00    +0.005 A 
ATOM      2  C   UNL     1      28.131   1.785  53.474  1.00  0.00    +0.014 A 
ATOM      3  C   UNL     1      29.189   0.935  53.811  1.00  0.00    +0.054 A 
ATOM      4  C   UNL     1      29.085  -0.437  53.594  1.00  0.00    +0.194 A 
ATOM      5  C   UNL     1      27.910  -0.959  53.040  1.00  0.00    +0.311 A 
ATOM      6  C   UNL     1      26.847  -0.104  52.702  1.00  0.00    +0.100 A 
ENDROOT
BRANCH   1   7
ATOM      7  C   UNL     1      25.842   2.163  52.559  1.00  0.00    +0.047 A 
ATOM      8  C   UNL     1      24.680   3.693  51.341  1.00  0.00    +0.110 A 
ATOM      9  C   UNL     1      23.891   3.311  52.407  1.00  0.00    +0.047 A 
ATOM     10  N   UNL     1      25.848   2.976  51.444  1.00  0.00    -0.341 N 
ATOM     11  C   UNL     1      24.614   2.362  53.169  1.00  0.00    +0.030 A 
ATOM     12  H   UNL     1      26.581   2.993  50.752  1.00  0.00    +0.168 HD
BRANCH   8  13
ATOM     13  N   UNL     1      24.472   4.562  50.302  1.00  0.00    -0.331 N 
ATOM     14  C   UNL     1      24.611   5.999  50.564  1.00  0.00    +0.152 C 
BRANCH  13  15
ATOM     15  C   UNL     1      23.649   4.211  49.197  1.00  0.00    +0.042 A 
ATOM     16  C   UNL     1      23.299   2.863  48.989  1.00  0.00    +0.026 A 
ATOM     17  C   UNL     1      23.167   5.147  48.267  1.00  0.00    +0.026 A 
ATOM     18  C   UNL     1      22.503   2.467  47.910  1.00  0.00    +0.002 A 
ATOM     19  C   UNL     1      22.368   4.755  47.185  1.00  0.00    +0.002 A 
ATOM     20  C   UNL     1      22.037   3.416  47.008  1.00  0.00    +0.000 A 
ENDBRANCH  13  15
ENDBRANCH   8  13
ENDBRANCH   1   7
BRANCH   5  21
ATOM     21  N   UNL     1      27.762  -2.397  52.803  1.00  0.00    +0.066 N 
ATOM     22  O   UNL     1      26.890  -2.755  51.995  1.00  0.00    -0.258 OA
ATOM     23  O   UNL     1      28.509  -3.171  53.415  1.00  0.00    -0.258 OA
ENDBRANCH   5  21
BRANCH   4  24
ATOM     24  O   UNL     1      30.182  -1.168  53.961  1.00  0.00    -0.502 OA
ATOM     25  H   UNL     1      30.870  -0.575  54.332  1.00  0.00    +0.293 HD
ENDBRANCH   4  24
TORSDOF 5
ENDMDL
MODEL 6
REMARK VINA RESULT:    -7.626      3.359      4.784
REMARK INTER + INTRA:         -10.496
REMARK INTER:                  -9.598
REMARK INTRA:                  -0.898
REMARK UNBOUND:                -0.865
REMARK SMILES CN(c1ccccc1)c1ccc(-c2ccc(O)c([N+](=O)[O-])c2)[nH]1
REMARK SMILES IDX 13 1 14 2 15 3 16 4 18 5 22 6 12 7 9 8 10 9 23 10 11 11 2 13
REMARK SMILES IDX 1 14 3 15 4 16 8 17 5 18 7 19 6 20 19 21 20 22 21 23 17 24
REMARK H PARENT 23 12 17 25
ROOT
ATOM      1  C   UNL     1      25.752  -0.017  53.248  1.00  0.00    +0.005 A 
ATOM      2  C   UNL     1      26.301  -1.288  53.030  1.00  0.00    +0.014 A 
ATOM      3  C   UNL     1      27.682  -1.496  53.110  1.00  0.00    +0.054 A 
ATOM      4  C   UNL     1      28.536  -0.437  53.409  1.00  0.00    +0.194 A 
ATOM      5  C   UNL     1      28.002   0.839  53.624  1.00  0.00    +0.311 A 
ATOM      6  C   UNL     1      26.614   1.048  53.543  1.00  0.00    +0.100 A 
ENDROOT
BRANCH   1   7
ATOM      7  C   UNL     1      24.307   0.206  53.166  1.00  0.00    +0.047 A 
ATOM      8  C   UNL     1      22.364   1.158  52.467  1.00  0.00    +0.110 A 
ATOM      9  C   UNL     1      22.046   0.138  53.342  1.00  0.00    +0.047 A 
ATOM     10  N   UNL     1      23.735   1.171  52.364  1.00  0.00    -0.341 N 
ATOM     11  C   UNL     1      23.256  -0.453  53.781  1.00  0.00    +0.030 A 
ATOM     12  H   UNL     1      24.245   1.764  51.729  1.00  0.00    +0.168 HD
BRANCH   8  13
ATOM     13  N   UNL     1      21.591   2.034  51.751  1.00  0.00    -0.331 N 
ATOM     14  C   UNL     1      20.235   2.316  52.235  1.00  0.00    +0.152 C 
BRANCH  13  15
ATOM     15  C   UNL     1      21.810   2.249  50.362  1.00  0.00    +0.042 A 
ATOM     16  C   UNL     1      22.175   3.529  49.905  1.00  0.00    +0.026 A 
ATOM     17  C   UNL     1      21.661   1.243  49.393  1.00  0.00    +0.026 A 
ATOM     18  C   UNL     1      22.389   3.793  48.548  1.00  0.00    +0.002 A 
ATOM     19  C   UNL     1      21.875   1.502  48.034  1.00  0.00    +0.002 A 
ATOM     20  C   UNL     1      22.238   2.776  47.613  1.00  0.00    +0.000 A 
ENDBRANCH  13  15
ENDBRANCH   8  13
ENDBRANCH   1   7
BRANCH   5  21
ATOM     21  N   UNL     1      28.869   1.978  53.935  1.00  0.00    +0.066 N 
ATOM     22  O   UNL     1      29.474   1.954  55.019  1.00  0.00    -0.258 OA
ATOM     23  O   UNL     1      28.951   2.894  53.108  1.00  0.00    -0.258 OA
ENDBRANCH   5  21
BRANCH   4  24
ATOM     24  O   UNL     1      29.864  -0.760  53.462  1.00  0.00    -0.502 OA
ATOM     25  H   UNL     1      30.228  -0.538  54.345  1.00  0.00    +0.293 HD
ENDBRANCH   4  24
TORSDOF 5
ENDMDL
MODEL 7
REMARK VINA RESULT:    -7.612      4.008      6.895
REMARK INTER + INTRA:         -10.480
REMARK INTER:                 -10.291
REMARK INTRA:                  -0.188
REMARK UNBOUND:                -0.865
REMARK SMILES CN(c1ccccc1)c1ccc(-c2ccc(O)c([N+](=O)[O-])c2)[nH]1
REMARK SMILES IDX 13 1 14 2 15 3 16 4 18 5 22 6 12 7 9 8 10 9 23 10 11 11 2 13
REMARK SMILES IDX 1 14 3 15 4 16 8 17 5 18 7 19 6 20 19 21 20 22 21 23 17 24
REMARK H PARENT 23 12 17 25
ROOT
ATOM      1  C   UNL     1      25.432   0.429  53.480  1.00  0.00    +0.005 A 
ATOM      2  C   UNL     1      25.835   1.765  53.350  1.00  0.00    +0.014 A 
ATOM      3  C   UNL     1      27.189   2.098  53.240  1.00  0.00    +0.054 A 
ATOM      4  C   UNL     1      28.162   1.102  53.259  1.00  0.00    +0.194 A 
ATOM      5  C   UNL     1      27.775  -0.237  53.394  1.00  0.00    +0.311 A 
ATOM      6  C   UNL     1      26.414  -0.572  53.504  1.00  0.00    +0.100 A 
ENDROOT
BRANCH   1   7
ATOM      7  C   UNL     1      24.017   0.074  53.595  1.00  0.00    +0.047 A 
ATOM      8  C   UNL     1      21.778   0.212  53.218  1.00  0.00    +0.110 A 
ATOM      9  C   UNL     1      22.004  -0.872  54.043  1.00  0.00    +0.047 A 
ATOM     10  N   UNL     1      23.010   0.759  52.947  1.00  0.00    -0.341 N 
ATOM     11  C   UNL     1      23.397  -0.956  54.282  1.00  0.00    +0.030 A 
ATOM     12  H   UNL     1      23.158   1.518  52.301  1.00  0.00    +0.168 HD
BRANCH   8  13
ATOM     13  N   UNL     1      20.635   0.734  52.672  1.00  0.00    -0.331 N 
ATOM     14  C   UNL     1      20.480   2.194  52.658  1.00  0.00    +0.152 C 
BRANCH  13  15
ATOM     15  C   UNL     1      19.430  -0.017  52.619  1.00  0.00    +0.042 A 
ATOM     16  C   UNL     1      18.458   0.292  51.647  1.00  0.00    +0.026 A 
ATOM     17  C   UNL     1      19.132  -1.062  53.509  1.00  0.00    +0.026 A 
ATOM     18  C   UNL     1      17.252  -0.410  51.563  1.00  0.00    +0.002 A 
ATOM     19  C   UNL     1      17.926  -1.768  53.428  1.00  0.00    +0.002 A 
ATOM     20  C   UNL     1      16.987  -1.442  52.456  1.00  0.00    +0.000 A 
ENDBRANCH  13  15
ENDBRANCH   8  13
ENDBRANCH   1   7
BRANCH   5  21
ATOM     21  N   UNL     1      28.770  -1.311  53.423  1.00  0.00    +0.066 N 
ATOM     22  O   UNL     1      28.390  -2.450  53.106  1.00  0.00    -0.258 OA
ATOM     23  O   UNL     1      29.927  -1.027  53.758  1.00  0.00    -0.258 OA
ENDBRANCH   5  21
BRANCH   4  24
ATOM     24  O   UNL     1      29.451   1.547  53.143  1.00  0.00    -0.502 OA
ATOM     25  H   UNL     1      29.686   2.097  53.920  1.00  0.00    +0.293 HD
ENDBRANCH   4  24
TORSDOF 5
ENDMDL
MODEL 8
REMARK VINA RESULT:    -7.540      3.259      4.936
REMARK INTER + INTRA:         -10.388
REMARK INTER:                  -9.713
REMARK INTRA:                  -0.675
REMARK UNBOUND:                -0.865
REMARK SMILES CN(c1ccccc1)c1ccc(-c2ccc(O)c([N+](=O)[O-])c2)[nH]1
REMARK SMILES IDX 13 1 14 2 15 3 16 4 18 5 22 6 12 7 9 8 10 9 23 10 11 11 2 13
REMARK SMILES IDX 1 14 3 15 4 16 8 17 5 18 7 19 6 20 19 21 20 22 21 23 17 24
REMARK H PARENT 23 12 17 25
ROOT
ATOM      1  C   UNL     1      25.783   0.489  53.188  1.00  0.00    +0.005 A 
ATOM      2  C   UNL     1      26.318   1.784  53.231  1.00  0.00    +0.014 A 
ATOM      3  C   UNL     1      27.697   1.987  53.348  1.00  0.00    +0.054 A 
ATOM      4  C   UNL     1      28.563   0.899  53.423  1.00  0.00    +0.194 A 
ATOM      5  C   UNL     1      28.043  -0.400  53.388  1.00  0.00    +0.311 A 
ATOM      6  C   UNL     1      26.657  -0.604  53.271  1.00  0.00    +0.100 A 
ENDROOT
BRANCH   1   7
ATOM      7  C   UNL     1      24.341   0.271  53.066  1.00  0.00    +0.047 A 
ATOM      8  C   UNL     1      22.236   0.540  52.247  1.00  0.00    +0.110 A 
ATOM      9  C   UNL     1      22.191  -0.436  53.222  1.00  0.00    +0.047 A 
ATOM     10  N   UNL     1      23.548   0.942  52.159  1.00  0.00    -0.341 N 
ATOM     11  C   UNL     1      23.500  -0.601  53.737  1.00  0.00    +0.030 A 
ATOM     12  H   UNL     1      23.891   1.592  51.469  1.00  0.00    +0.168 HD
BRANCH   8  13
ATOM     13  N   UNL     1      21.275   1.076  51.431  1.00  0.00    -0.331 N 
ATOM     14  C   UNL     1      19.956   0.433  51.403  1.00  0.00    +0.152 C 
BRANCH  13  15
ATOM     15  C   UNL     1      21.620   1.832  50.278  1.00  0.00    +0.042 A 
ATOM     16  C   UNL     1      21.836   1.174  49.052  1.00  0.00    +0.026 A 
ATOM     17  C   UNL     1      21.780   3.228  50.290  1.00  0.00    +0.026 A 
ATOM     18  C   UNL     1      22.189   1.873  47.893  1.00  0.00    +0.002 A 
ATOM     19  C   UNL     1      22.133   3.932  49.133  1.00  0.00    +0.002 A 
ATOM     20  C   UNL     1      22.337   3.255  47.936  1.00  0.00    +0.000 A 
ENDBRANCH  13  15
ENDBRANCH   8  13
ENDBRANCH   1   7
BRANCH   5  21
ATOM     21  N   UNL     1      28.923  -1.568  53.470  1.00  0.00    +0.066 N 
ATOM     22  O   UNL     1      30.086  -1.380  53.863  1.00  0.00    -0.258 OA
ATOM     23  O   UNL     1      28.464  -2.671  53.146  1.00  0.00    -0.258 OA
ENDBRANCH   5  21
BRANCH   4  24
ATOM     24  O   UNL     1      29.889   1.220  53.533  1.00  0.00    -0.502 OA
ATOM     25  H   UNL     1      29.985   2.137  53.867  1.00  0.00    +0.293 HD
ENDBRANCH   4  24
TORSDOF 5
ENDMDL
MODEL 9
REMARK VINA RESULT:    -7.477      3.788      6.066
REMARK INTER + INTRA:         -10.308
REMARK INTER:                  -9.658
REMARK INTRA:                  -0.650
REMARK UNBOUND:                -0.865
REMARK SMILES CN(c1ccccc1)c1ccc(-c2ccc(O)c([N+](=O)[O-])c2)[nH]1
REMARK SMILES IDX 13 1 14 2 15 3 16 4 18 5 22 6 12 7 9 8 10 9 23 10 11 11 2 13
REMARK SMILES IDX 1 14 3 15 4 16 8 17 5 18 7 19 6 20 19 21 20 22 21 23 17 24
REMARK H PARENT 23 12 17 25
ROOT
ATOM      1  C   UNL     1      24.496   0.159  53.613  1.00  0.00    +0.005 A 
ATOM      2  C   UNL     1      24.743   0.927  52.467  1.00  0.00    +0.014 A 
ATOM      3  C   UNL     1      26.029   1.397  52.182  1.00  0.00    +0.054 A 
ATOM      4  C   UNL     1      27.089   1.108  53.039  1.00  0.00    +0.194 A 
ATOM      5  C   UNL     1      26.856   0.348  54.191  1.00  0.00    +0.311 A 
ATOM      6  C   UNL     1      25.563  -0.125  54.477  1.00  0.00    +0.100 A 
ENDROOT
BRANCH   1   7
ATOM      7  C   UNL     1      23.152  -0.336  53.916  1.00  0.00    +0.047 A 
ATOM      8  C   UNL     1      20.893  -0.523  53.741  1.00  0.00    +0.110 A 
ATOM      9  C   UNL     1      21.321  -1.428  54.691  1.00  0.00    +0.047 A 
ATOM     10  N   UNL     1      22.017   0.115  53.275  1.00  0.00    -0.341 N 
ATOM     11  C   UNL     1      22.728  -1.310  54.804  1.00  0.00    +0.030 A 
ATOM     12  H   UNL     1      22.014   0.775  52.513  1.00  0.00    +0.168 HD
BRANCH   8  13
ATOM     13  N   UNL     1      19.652  -0.230  53.238  1.00  0.00    -0.331 N 
ATOM     14  C   UNL     1      18.617  -1.268  53.305  1.00  0.00    +0.152 C 
BRANCH  13  15
ATOM     15  C   UNL     1      19.476   0.756  52.230  1.00  0.00    +0.042 A 
ATOM     16  C   UNL     1      19.060   0.369  50.941  1.00  0.00    +0.026 A 
ATOM     17  C   UNL     1      19.715   2.124  52.439  1.00  0.00    +0.026 A 
ATOM     18  C   UNL     1      18.885   1.300  49.913  1.00  0.00    +0.002 A 
ATOM     19  C   UNL     1      19.541   3.061  51.413  1.00  0.00    +0.002 A 
ATOM     20  C   UNL     1      19.126   2.648  50.151  1.00  0.00    +0.000 A 
ENDBRANCH  13  15
ENDBRANCH   8  13
ENDBRANCH   1   7
BRANCH   5  21
ATOM     21  N   UNL     1      27.944   0.029  55.117  1.00  0.00    +0.066 N 
ATOM     22  O   UNL     1      27.687   0.056  56.332  1.00  0.00    -0.258 OA
ATOM     23  O   UNL     1      29.054  -0.248  54.644  1.00  0.00    -0.258 OA
ENDBRANCH   5  21
BRANCH   4  24
ATOM     24  O   UNL     1      28.300   1.620  52.657  1.00  0.00    -0.502 OA
ATOM     25  H   UNL     1      28.938   1.556  53.398  1.00  0.00    +0.293 HD
ENDBRANCH   4  24
TORSDOF 5
ENDMDL
