MODEL 1
REMARK VINA RESULT:    -7.877      0.000      0.000
REMARK INTER + INTRA:         -10.580
REMARK INTER:                  -9.949
REMARK INTRA:                  -0.632
REMARK UNBOUND:                -0.632
REMARK SMILES Cc1cc(C)c(Cc2cc(C(=O)O)cc(O)c2O)[nH]1
REMARK SMILES IDX 8 1 9 2 10 3 14 4 15 5 17 6 7 7 6 8 2 9 3 10 19 11 4 12 1 13
REMARK SMILES IDX 5 15 18 16 11 18 12 19 13 20 16 22
REMARK H PARENT 19 14 18 17 13 21 16 23
ROOT
ATOM      1  C   UNL     1      26.667   1.232  53.073  1.00  0.00    +0.004 A 
ATOM      2  C   UNL     1      26.588  -0.134  52.739  1.00  0.00    +0.024 A 
ATOM      3  C   UNL     1      27.668  -1.002  52.972  1.00  0.00    +0.064 A 
ATOM      4  C   UNL     1      28.849  -0.515  53.544  1.00  0.00    +0.065 A 
ATOM      5  C   UNL     1      28.930   0.833  53.869  1.00  0.00    +0.158 A 
ATOM      6  C   UNL     1      27.856   1.696  53.636  1.00  0.00    +0.161 A 
ENDROOT
BRANCH   1   7
ATOM      7  C   UNL     1      25.486   2.142  52.824  1.00  0.00    +0.093 C 
BRANCH   7   8
ATOM      8  C   UNL     1      25.487   2.736  51.447  1.00  0.00    +0.022 A 
ATOM      9  C   UNL     1      26.325   3.857  49.683  1.00  0.00    +0.012 A 
ATOM     10  C   UNL     1      25.048   3.454  49.356  1.00  0.00    +0.026 A 
ATOM     11  N   UNL     1      26.576   3.418  50.959  1.00  0.00    -0.362 N 
ATOM     12  C   UNL     1      24.508   2.748  50.465  1.00  0.00    -0.030 A 
ATOM     13  C   UNL     1      27.333   4.617  48.908  1.00  0.00    +0.064 C 
ATOM     14  H   UNL     1      27.440   3.570  51.464  1.00  0.00    +0.166 HD
ATOM     15  C   UNL     1      23.156   2.134  50.545  1.00  0.00    +0.046 C 
ENDBRANCH   7   8
ENDBRANCH   1   7
BRANCH   6  16
ATOM     16  O   UNL     1      27.997   3.014  53.973  1.00  0.00    -0.504 OA
ATOM     17  H   UNL     1      27.232   3.461  53.558  1.00  0.00    +0.293 HD
ENDBRANCH   6  16
BRANCH   3  18
ATOM     18  C   UNL     1      27.512  -2.427  52.593  1.00  0.00    +0.335 C 
ATOM     19  O   UNL     1      26.666  -2.879  51.843  1.00  0.00    -0.246 OA
BRANCH  18  20
ATOM     20  O   UNL     1      28.427  -3.222  53.173  1.00  0.00    -0.478 OA
ATOM     21  H   UNL     1      28.845  -3.684  52.415  1.00  0.00    +0.297 HD
ENDBRANCH  18  20
ENDBRANCH   3  18
BRANCH   5  22
ATOM     22  O   UNL     1      30.059   1.370  54.429  1.00  0.00    -0.504 OA
ATOM     23  H   UNL     1      30.028   2.336  54.318  1.00  0.00    +0.293 HD
ENDBRANCH   5  22
TORSDOF 6
ENDMDL
MODEL 2
REMARK VINA RESULT:    -7.600      2.205      3.441
REMARK INTER + INTRA:         -10.230
REMARK INTER:                  -9.869
REMARK INTRA:                  -0.361
REMARK UNBOUND:                -0.632
REMARK SMILES Cc1cc(C)c(Cc2cc(C(=O)O)cc(O)c2O)[nH]1
REMARK SMILES IDX 8 1 9 2 10 3 14 4 15 5 17 6 7 7 6 8 2 9 3 10 19 11 4 12 1 13
REMARK SMILES IDX 5 15 18 16 11 18 12 19 13 20 16 22
REMARK H PARENT 19 14 18 17 13 21 16 23
ROOT
ATOM      1  C   UNL     1      26.369   1.107  53.314  1.00  0.00    +0.004 A 
ATOM      2  C   UNL     1      26.356  -0.240  52.902  1.00  0.00    +0.024 A 
ATOM      3  C   UNL     1      27.521  -1.023  52.943  1.00  0.00    +0.064 A 
ATOM      4  C   UNL     1      28.724  -0.469  53.397  1.00  0.00    +0.065 A 
ATOM      5  C   UNL     1      28.740   0.860  53.799  1.00  0.00    +0.158 A 
ATOM      6  C   UNL     1      27.580   1.639  53.756  1.00  0.00    +0.161 A 
ENDROOT
BRANCH   1   7
ATOM      7  C   UNL     1      25.099   1.924  53.272  1.00  0.00    +0.093 C 
BRANCH   7   8
ATOM      8  C   UNL     1      23.873   1.089  53.053  1.00  0.00    +0.022 A 
ATOM      9  C   UNL     1      22.295  -0.434  53.561  1.00  0.00    +0.012 A 
ATOM     10  C   UNL     1      22.016   0.055  52.303  1.00  0.00    +0.026 A 
ATOM     11  N   UNL     1      23.430   0.200  54.002  1.00  0.00    -0.362 N 
ATOM     12  C   UNL     1      23.009   1.016  51.970  1.00  0.00    -0.030 A 
ATOM     13  C   UNL     1      21.595  -1.442  54.390  1.00  0.00    +0.064 C 
ATOM     14  H   UNL     1      23.871   0.040  54.898  1.00  0.00    +0.166 HD
ATOM     15  C   UNL     1      23.092   1.796  50.707  1.00  0.00    +0.046 C 
ENDBRANCH   7   8
ENDBRANCH   1   7
BRANCH   6  16
ATOM     16  O   UNL     1      27.660   2.944  54.160  1.00  0.00    -0.504 OA
ATOM     17  H   UNL     1      27.974   3.431  53.372  1.00  0.00    +0.293 HD
ENDBRANCH   6  16
BRANCH   3  18
ATOM     18  C   UNL     1      27.429  -2.433  52.493  1.00  0.00    +0.335 C 
ATOM     19  O   UNL     1      26.577  -2.894  51.756  1.00  0.00    -0.246 OA
BRANCH  18  20
ATOM     20  O   UNL     1      28.416  -3.202  52.987  1.00  0.00    -0.478 OA
ATOM     21  H   UNL     1      29.113  -2.555  53.227  1.00  0.00    +0.297 HD
ENDBRANCH  18  20
ENDBRANCH   3  18
BRANCH   5  22
ATOM     22  O   UNL     1      29.886   1.460  54.251  1.00  0.00    -0.504 OA
ATOM     23  H   UNL     1      29.853   1.491  55.223  1.00  0.00    +0.293 HD
ENDBRANCH   5  22
TORSDOF 6
ENDMDL
MODEL 3
REMARK VINA RESULT:    -7.417      1.347      1.800
REMARK INTER + INTRA:          -9.999
REMARK INTER:                  -9.411
REMARK INTRA:                  -0.589
REMARK UNBOUND:                -0.632
REMARK SMILES Cc1cc(C)c(Cc2cc(C(=O)O)cc(O)c2O)[nH]1
REMARK SMILES IDX 8 1 9 2 10 3 14 4 15 5 17 6 7 7 6 8 2 9 3 10 19 11 4 12 1 13
REMARK SMILES IDX 5 15 18 16 11 18 12 19 13 20 16 22
REMARK H PARENT 19 14 18 17 13 21 16 23
ROOT
ATOM      1  C   UNL     1      26.614   1.137  53.523  1.00  0.00    +0.004 A 
ATOM      2  C   UNL     1      26.480  -0.195  53.086  1.00  0.00    +0.024 A 
ATOM      3  C   UNL     1      27.598  -1.039  52.974  1.00  0.00    +0.064 A 
ATOM      4  C   UNL     1      28.874  -0.560  53.295  1.00  0.00    +0.065 A 
ATOM      5  C   UNL     1      29.008   0.755  53.721  1.00  0.00    +0.158 A 
ATOM      6  C   UNL     1      27.896   1.594  53.832  1.00  0.00    +0.161 A 
ENDROOT
BRANCH   1   7
ATOM      7  C   UNL     1      25.394   2.019  53.648  1.00  0.00    +0.093 C 
BRANCH   7   8
ATOM      8  C   UNL     1      24.490   1.939  52.455  1.00  0.00    +0.022 A 
ATOM      9  C   UNL     1      23.733   2.459  50.399  1.00  0.00    +0.012 A 
ATOM     10  C   UNL     1      22.901   1.490  50.919  1.00  0.00    +0.026 A 
ATOM     11  N   UNL     1      24.690   2.725  51.345  1.00  0.00    -0.362 N 
ATOM     12  C   UNL     1      23.369   1.157  52.220  1.00  0.00    -0.030 A 
ATOM     13  C   UNL     1      23.712   3.158  49.093  1.00  0.00    +0.064 C 
ATOM     14  H   UNL     1      25.438   3.398  51.238  1.00  0.00    +0.166 HD
ATOM     15  C   UNL     1      22.771   0.154  53.140  1.00  0.00    +0.046 C 
ENDBRANCH   7   8
ENDBRANCH   1   7
BRANCH   6  16
ATOM     16  O   UNL     1      28.092   2.881  54.252  1.00  0.00    -0.504 OA
ATOM     17  H   UNL     1      27.483   3.417  53.706  1.00  0.00    +0.293 HD
ENDBRANCH   6  16
BRANCH   3  18
ATOM     18  C   UNL     1      27.378  -2.429  52.506  1.00  0.00    +0.335 C 
ATOM     19  O   UNL     1      26.482  -2.803  51.773  1.00  0.00    -0.246 OA
BRANCH  18  20
ATOM     20  O   UNL     1      28.298  -3.288  52.981  1.00  0.00    -0.478 OA
ATOM     21  H   UNL     1      28.109  -3.319  53.943  1.00  0.00    +0.297 HD
ENDBRANCH  18  20
ENDBRANCH   3  18
BRANCH   5  22
ATOM     22  O   UNL     1      30.230   1.282  54.048  1.00  0.00    -0.504 OA
ATOM     23  H   UNL     1      30.512   0.899  54.897  1.00  0.00    +0.293 HD
ENDBRANCH   5  22
TORSDOF 6
ENDMDL
MODEL 4
REMARK VINA RESULT:    -7.158      3.830      6.038
REMARK INTER + INTRA:          -9.673
REMARK INTER:                  -9.169
REMARK INTRA:                  -0.503
REMARK UNBOUND:                -0.632
REMARK SMILES Cc1cc(C)c(Cc2cc(C(=O)O)cc(O)c2O)[nH]1
REMARK SMILES IDX 8 1 9 2 10 3 14 4 15 5 17 6 7 7 6 8 2 9 3 10 19 11 4 12 1 13
REMARK SMILES IDX 5 15 18 16 11 18 12 19 13 20 16 22
REMARK H PARENT 19 14 18 17 13 21 16 23
ROOT
ATOM      1  C   UNL     1      23.951  -0.594  54.288  1.00  0.00    +0.004 A 
ATOM      2  C   UNL     1      23.853   0.192  53.123  1.00  0.00    +0.024 A 
ATOM      3  C   UNL     1      22.627   0.357  52.459  1.00  0.00    +0.064 A 
ATOM      4  C   UNL     1      21.473  -0.266  52.950  1.00  0.00    +0.065 A 
ATOM      5  C   UNL     1      21.568  -1.045  54.095  1.00  0.00    +0.158 A 
ATOM      6  C   UNL     1      22.789  -1.210  54.755  1.00  0.00    +0.161 A 
ENDROOT
BRANCH   1   7
ATOM      7  C   UNL     1      25.280  -0.745  54.991  1.00  0.00    +0.093 C 
BRANCH   7   8
ATOM      8  C   UNL     1      26.427  -0.201  54.195  1.00  0.00    +0.022 A 
ATOM      9  C   UNL     1      27.992   1.301  53.590  1.00  0.00    +0.012 A 
ATOM     10  C   UNL     1      28.121   0.205  52.764  1.00  0.00    +0.026 A 
ATOM     11  N   UNL     1      26.955   1.042  54.450  1.00  0.00    -0.362 N 
ATOM     12  C   UNL     1      27.135  -0.748  53.135  1.00  0.00    -0.030 A 
ATOM     13  C   UNL     1      28.753   2.571  53.646  1.00  0.00    +0.064 C 
ATOM     14  H   UNL     1      26.631   1.673  55.173  1.00  0.00    +0.166 HD
ATOM     15  C   UNL     1      26.917  -2.080  52.509  1.00  0.00    +0.046 C 
ENDBRANCH   7   8
ENDBRANCH   1   7
BRANCH   6  16
ATOM     16  O   UNL     1      22.821  -1.994  55.876  1.00  0.00    -0.504 OA
ATOM     17  H   UNL     1      21.889  -2.249  56.028  1.00  0.00    +0.293 HD
ENDBRANCH   6  16
BRANCH   3  18
ATOM     18  C   UNL     1      22.603   1.199  51.238  1.00  0.00    +0.335 C 
ATOM     19  O   UNL     1      23.270   2.198  51.045  1.00  0.00    -0.246 OA
BRANCH  18  20
ATOM     20  O   UNL     1      21.742   0.744  50.311  1.00  0.00    -0.478 OA
ATOM     21  H   UNL     1      21.933   1.300  49.526  1.00  0.00    +0.297 HD
ENDBRANCH  18  20
ENDBRANCH   3  18
BRANCH   5  22
ATOM     22  O   UNL     1      20.476  -1.682  54.623  1.00  0.00    -0.504 OA
ATOM     23  H   UNL     1      20.438  -2.582  54.256  1.00  0.00    +0.293 HD
ENDBRANCH   5  22
TORSDOF 6
ENDMDL
MODEL 5
REMARK VINA RESULT:    -6.908      2.388      3.478
REMARK INTER + INTRA:          -9.357
REMARK INTER:                  -8.849
REMARK INTRA:                  -0.508
REMARK UNBOUND:                -0.632
REMARK SMILES Cc1cc(C)c(Cc2cc(C(=O)O)cc(O)c2O)[nH]1
REMARK SMILES IDX 8 1 9 2 10 3 14 4 15 5 17 6 7 7 6 8 2 9 3 10 19 11 4 12 1 13
REMARK SMILES IDX 5 15 18 16 11 18 12 19 13 20 16 22
REMARK H PARENT 19 14 18 17 13 21 16 23
ROOT
ATOM      1  C   UNL     1      24.880   0.672  53.100  1.00  0.00    +0.004 A 
ATOM      2  C   UNL     1      25.521  -0.582  53.090  1.00  0.00    +0.024 A 
ATOM      3  C   UNL     1      26.877  -0.702  52.745  1.00  0.00    +0.064 A 
ATOM      4  C   UNL     1      27.617   0.436  52.402  1.00  0.00    +0.065 A 
ATOM      5  C   UNL     1      26.985   1.673  52.407  1.00  0.00    +0.158 A 
ATOM      6  C   UNL     1      25.636   1.791  52.749  1.00  0.00    +0.161 A 
ENDROOT
BRANCH   1   7
ATOM      7  C   UNL     1      23.423   0.775  53.488  1.00  0.00    +0.093 C 
BRANCH   7   8
ATOM      8  C   UNL     1      22.501   0.743  52.306  1.00  0.00    +0.022 A 
ATOM      9  C   UNL     1      21.854   1.115  50.182  1.00  0.00    +0.012 A 
ATOM     10  C   UNL     1      20.816   0.482  50.831  1.00  0.00    +0.026 A 
ATOM     11  N   UNL     1      22.869   1.272  51.092  1.00  0.00    -0.362 N 
ATOM     12  C   UNL     1      21.213   0.246  52.176  1.00  0.00    -0.030 A 
ATOM     13  C   UNL     1      21.982   1.587  48.783  1.00  0.00    +0.064 C 
ATOM     14  H   UNL     1      23.761   1.708  50.895  1.00  0.00    +0.166 HD
ATOM     15  C   UNL     1      20.401  -0.417  53.230  1.00  0.00    +0.046 C 
ENDBRANCH   7   8
ENDBRANCH   1   7
BRANCH   6  16
ATOM     16  O   UNL     1      25.067   3.035  52.731  1.00  0.00    -0.504 OA
ATOM     17  H   UNL     1      25.283   3.395  51.847  1.00  0.00    +0.293 HD
ENDBRANCH   6  16
BRANCH   3  18
ATOM     18  C   UNL     1      27.483  -2.055  52.755  1.00  0.00    +0.335 C 
ATOM     19  O   UNL     1      28.477  -2.389  53.373  1.00  0.00    -0.246 OA
BRANCH  18  20
ATOM     20  O   UNL     1      26.810  -2.931  51.989  1.00  0.00    -0.478 OA
ATOM     21  H   UNL     1      26.007  -3.129  52.516  1.00  0.00    +0.297 HD
ENDBRANCH  18  20
ENDBRANCH   3  18
BRANCH   5  22
ATOM     22  O   UNL     1      27.655   2.823  52.079  1.00  0.00    -0.504 OA
ATOM     23  H   UNL     1      27.603   3.435  52.834  1.00  0.00    +0.293 HD
ENDBRANCH   5  22
TORSDOF 6
ENDMDL
MODEL 6
REMARK VINA RESULT:    -6.836      2.466      4.825
REMARK INTER + INTRA:          -9.266
REMARK INTER:                  -8.791
REMARK INTRA:                  -0.475
REMARK UNBOUND:                -0.632
REMARK SMILES Cc1cc(C)c(Cc2cc(C(=O)O)cc(O)c2O)[nH]1
REMARK SMILES IDX 8 1 9 2 10 3 14 4 15 5 17 6 7 7 6 8 2 9 3 10 19 11 4 12 1 13
REMARK SMILES IDX 5 15 18 16 11 18 12 19 13 20 16 22
REMARK H PARENT 19 14 18 17 13 21 16 23
ROOT
ATOM      1  C   UNL     1      26.760   0.272  52.538  1.00  0.00    +0.004 A 
ATOM      2  C   UNL     1      27.485   1.344  53.090  1.00  0.00    +0.024 A 
ATOM      3  C   UNL     1      28.704   1.131  53.756  1.00  0.00    +0.064 A 
ATOM      4  C   UNL     1      29.217  -0.165  53.882  1.00  0.00    +0.065 A 
ATOM      5  C   UNL     1      28.500  -1.225  53.342  1.00  0.00    +0.158 A 
ATOM      6  C   UNL     1      27.287  -1.012  52.681  1.00  0.00    +0.161 A 
ENDROOT
BRANCH   1   7
ATOM      7  C   UNL     1      25.458   0.530  51.815  1.00  0.00    +0.093 C 
BRANCH   7   8
ATOM      8  C   UNL     1      24.254   0.303  52.680  1.00  0.00    +0.022 A 
ATOM      9  C   UNL     1      23.038  -0.654  54.315  1.00  0.00    +0.012 A 
ATOM     10  C   UNL     1      22.252   0.307  53.716  1.00  0.00    +0.026 A 
ATOM     11  N   UNL     1      24.250  -0.649  53.672  1.00  0.00    -0.362 N 
ATOM     12  C   UNL     1      23.010   0.916  52.679  1.00  0.00    -0.030 A 
ATOM     13  C   UNL     1      22.756  -1.579  55.438  1.00  0.00    +0.064 C 
ATOM     14  H   UNL     1      25.029  -1.253  53.899  1.00  0.00    +0.166 HD
ATOM     15  C   UNL     1      22.553   2.006  51.777  1.00  0.00    +0.046 C 
ENDBRANCH   7   8
ENDBRANCH   1   7
BRANCH   6  16
ATOM     16  O   UNL     1      26.624  -2.096  52.175  1.00  0.00    -0.504 OA
ATOM     17  H   UNL     1      26.226  -1.777  51.340  1.00  0.00    +0.293 HD
ENDBRANCH   6  16
BRANCH   3  18
ATOM     18  C   UNL     1      29.410   2.310  54.313  1.00  0.00    +0.335 C 
ATOM     19  O   UNL     1      29.833   2.419  55.449  1.00  0.00    -0.246 OA
BRANCH  18  20
ATOM     20  O   UNL     1      29.556   3.300  53.415  1.00  0.00    -0.478 OA
ATOM     21  H   UNL     1      28.759   3.856  53.554  1.00  0.00    +0.297 HD
ENDBRANCH  18  20
ENDBRANCH   3  18
BRANCH   5  22
ATOM     22  O   UNL     1      28.948  -2.516  53.435  1.00  0.00    -0.504 OA
ATOM     23  H   UNL     1      29.815  -2.509  53.877  1.00  0.00    +0.293 HD
ENDBRANCH   5  22
TORSDOF 6
ENDMDL
MODEL 7
REMARK VINA RESULT:    -6.752      2.501      2.971
REMARK INTER + INTRA:          -9.160
REMARK INTER:                  -8.505
REMARK INTRA:                  -0.654
REMARK UNBOUND:                -0.632
REMARK SMILES Cc1cc(C)c(Cc2cc(C(=O)O)cc(O)c2O)[nH]1
REMARK SMILES IDX 8 1 9 2 10 3 14 4 15 5 17 6 7 7 6 8 2 9 3 10 19 11 4 12 1 13
REMARK SMILES IDX 5 15 18 16 11 18 12 19 13 20 16 22
REMARK H PARENT 19 14 18 17 13 21 16 23
ROOT
ATOM      1  C   UNL     1      25.725   1.771  52.314  1.00  0.00    +0.004 A 
ATOM      2  C   UNL     1      25.507   0.919  53.414  1.00  0.00    +0.024 A 
ATOM      3  C   UNL     1      26.514   0.690  54.366  1.00  0.00    +0.064 A 
ATOM      4  C   UNL     1      27.761   1.311  54.232  1.00  0.00    +0.065 A 
ATOM      5  C   UNL     1      27.980   2.147  53.145  1.00  0.00    +0.158 A 
ATOM      6  C   UNL     1      26.977   2.373  52.197  1.00  0.00    +0.161 A 
ENDROOT
BRANCH   1   7
ATOM      7  C   UNL     1      24.620   2.010  51.311  1.00  0.00    +0.093 C 
BRANCH   7   8
ATOM      8  C   UNL     1      23.916   3.318  51.518  1.00  0.00    +0.022 A 
ATOM      9  C   UNL     1      23.677   5.556  51.520  1.00  0.00    +0.012 A 
ATOM     10  C   UNL     1      22.497   5.009  51.976  1.00  0.00    +0.026 A 
ATOM     11  N   UNL     1      24.532   4.517  51.251  1.00  0.00    -0.362 N 
ATOM     12  C   UNL     1      22.639   3.594  51.983  1.00  0.00    -0.030 A 
ATOM     13  C   UNL     1      24.078   6.968  51.313  1.00  0.00    +0.064 C 
ATOM     14  H   UNL     1      25.476   4.619  50.900  1.00  0.00    +0.166 HD
ATOM     15  C   UNL     1      21.607   2.608  52.399  1.00  0.00    +0.046 C 
ENDBRANCH   7   8
ENDBRANCH   1   7
BRANCH   6  16
ATOM     16  O   UNL     1      27.254   3.204  51.146  1.00  0.00    -0.504 OA
ATOM     17  H   UNL     1      27.985   3.772  51.462  1.00  0.00    +0.293 HD
ENDBRANCH   6  16
BRANCH   3  18
ATOM     18  C   UNL     1      26.211  -0.221  55.497  1.00  0.00    +0.335 C 
ATOM     19  O   UNL     1      25.353  -1.084  55.509  1.00  0.00    -0.246 OA
BRANCH  18  20
ATOM     20  O   UNL     1      27.002  -0.007  56.563  1.00  0.00    -0.478 OA
ATOM     21  H   UNL     1      27.831   0.339  56.169  1.00  0.00    +0.297 HD
ENDBRANCH  18  20
ENDBRANCH   3  18
BRANCH   5  22
ATOM     22  O   UNL     1      29.179   2.782  52.957  1.00  0.00    -0.504 OA
ATOM     23  H   UNL     1      29.280   2.974  52.008  1.00  0.00    +0.293 HD
ENDBRANCH   5  22
TORSDOF 6
ENDMDL
MODEL 8
REMARK VINA RESULT:    -6.630      3.280      4.878
REMARK INTER + INTRA:          -9.006
REMARK INTER:                  -8.459
REMARK INTRA:                  -0.546
REMARK UNBOUND:                -0.632
REMARK SMILES Cc1cc(C)c(Cc2cc(C(=O)O)cc(O)c2O)[nH]1
REMARK SMILES IDX 8 1 9 2 10 3 14 4 15 5 17 6 7 7 6 8 2 9 3 10 19 11 4 12 1 13
REMARK SMILES IDX 5 15 18 16 11 18 12 19 13 20 16 22
REMARK H PARENT 19 14 18 17 13 21 16 23
ROOT
ATOM      1  C   UNL     1      25.081  -0.165  53.434  1.00  0.00    +0.004 A 
ATOM      2  C   UNL     1      25.792   0.776  52.665  1.00  0.00    +0.024 A 
ATOM      3  C   UNL     1      26.932   1.418  53.175  1.00  0.00    +0.064 A 
ATOM      4  C   UNL     1      27.381   1.129  54.470  1.00  0.00    +0.065 A 
ATOM      5  C   UNL     1      26.678   0.204  55.231  1.00  0.00    +0.158 A 
ATOM      6  C   UNL     1      25.543  -0.433  54.723  1.00  0.00    +0.161 A 
ENDROOT
BRANCH   1   7
ATOM      7  C   UNL     1      23.865  -0.852  52.856  1.00  0.00    +0.093 C 
BRANCH   7   8
ATOM      8  C   UNL     1      22.591  -0.109  53.127  1.00  0.00    +0.022 A 
ATOM      9  C   UNL     1      21.105   1.573  52.950  1.00  0.00    +0.012 A 
ATOM     10  C   UNL     1      20.580   0.639  53.817  1.00  0.00    +0.026 A 
ATOM     11  N   UNL     1      22.330   1.108  52.543  1.00  0.00    -0.362 N 
ATOM     12  C   UNL     1      21.513  -0.426  53.939  1.00  0.00    -0.030 A 
ATOM     13  C   UNL     1      20.562   2.864  52.466  1.00  0.00    +0.064 C 
ATOM     14  H   UNL     1      22.947   1.588  51.901  1.00  0.00    +0.166 HD
ATOM     15  C   UNL     1      21.351  -1.648  54.772  1.00  0.00    +0.046 C 
ENDBRANCH   7   8
ENDBRANCH   1   7
BRANCH   6  16
ATOM     16  O   UNL     1      24.889  -1.331  55.522  1.00  0.00    -0.504 OA
ATOM     17  H   UNL     1      24.629  -0.817  56.313  1.00  0.00    +0.293 HD
ENDBRANCH   6  16
BRANCH   3  18
ATOM     18  C   UNL     1      27.628   2.399  52.307  1.00  0.00    +0.335 C 
ATOM     19  O   UNL     1      27.244   2.791  51.221  1.00  0.00    -0.246 OA
BRANCH  18  20
ATOM     20  O   UNL     1      28.777   2.845  52.845  1.00  0.00    -0.478 OA
ATOM     21  H   UNL     1      29.382   2.077  52.766  1.00  0.00    +0.297 HD
ENDBRANCH  18  20
ENDBRANCH   3  18
BRANCH   5  22
ATOM     22  O   UNL     1      27.065  -0.119  56.505  1.00  0.00    -0.504 OA
ATOM     23  H   UNL     1      27.694   0.555  56.815  1.00  0.00    +0.293 HD
ENDBRANCH   5  22
TORSDOF 6
ENDMDL
MODEL 9
REMARK VINA RESULT:    -6.545      2.958      4.586
REMARK INTER + INTRA:          -8.898
REMARK INTER:                  -8.265
REMARK INTRA:                  -0.633
REMARK UNBOUND:                -0.632
REMARK SMILES Cc1cc(C)c(Cc2cc(C(=O)O)cc(O)c2O)[nH]1
REMARK SMILES IDX 8 1 9 2 10 3 14 4 15 5 17 6 7 7 6 8 2 9 3 10 19 11 4 12 1 13
REMARK SMILES IDX 5 15 18 16 11 18 12 19 13 20 16 22
REMARK H PARENT 19 14 18 17 13 21 16 23
ROOT
ATOM      1  C   UNL     1      24.233   2.108  52.463  1.00  0.00    +0.004 A 
ATOM      2  C   UNL     1      24.628   0.818  52.865  1.00  0.00    +0.024 A 
ATOM      3  C   UNL     1      25.933   0.352  52.630  1.00  0.00    +0.064 A 
ATOM      4  C   UNL     1      26.865   1.173  51.985  1.00  0.00    +0.065 A 
ATOM      5  C   UNL     1      26.475   2.444  51.583  1.00  0.00    +0.158 A 
ATOM      6  C   UNL     1      25.177   2.906  51.816  1.00  0.00    +0.161 A 
ENDROOT
BRANCH   1   7
ATOM      7  C   UNL     1      22.827   2.590  52.739  1.00  0.00    +0.093 C 
BRANCH   7   8
ATOM      8  C   UNL     1      21.777   1.623  52.280  1.00  0.00    +0.022 A 
ATOM      9  C   UNL     1      20.095   0.144  52.503  1.00  0.00    +0.012 A 
ATOM     10  C   UNL     1      20.361   0.277  51.157  1.00  0.00    +0.026 A 
ATOM     11  N   UNL     1      20.967   0.963  53.174  1.00  0.00    -0.362 N 
ATOM     12  C   UNL     1      21.425   1.207  51.005  1.00  0.00    -0.030 A 
ATOM     13  C   UNL     1      19.096  -0.683  53.219  1.00  0.00    +0.064 C 
ATOM     14  H   UNL     1      21.003   1.071  54.179  1.00  0.00    +0.166 HD
ATOM     15  C   UNL     1      22.031   1.650  49.722  1.00  0.00    +0.046 C 
ENDBRANCH   7   8
ENDBRANCH   1   7
BRANCH   6  16
ATOM     16  O   UNL     1      24.850   4.165  51.394  1.00  0.00    -0.504 OA
ATOM     17  H   UNL     1      23.873   4.168  51.348  1.00  0.00    +0.293 HD
ENDBRANCH   6  16
BRANCH   3  18
ATOM     18  C   UNL     1      26.275  -1.018  53.081  1.00  0.00    +0.335 C 
ATOM     19  O   UNL     1      26.791  -1.886  52.401  1.00  0.00    -0.246 OA
BRANCH  18  20
ATOM     20  O   UNL     1      25.956  -1.237  54.368  1.00  0.00    -0.478 OA
ATOM     21  H   UNL     1      26.234  -0.411  54.818  1.00  0.00    +0.297 HD
ENDBRANCH  18  20
ENDBRANCH   3  18
BRANCH   5  22
ATOM     22  O   UNL     1      27.341   3.293  50.946  1.00  0.00    -0.504 OA
ATOM     23  H   UNL     1      28.242   3.107  51.263  1.00  0.00    +0.293 HD
ENDBRANCH   5  22
TORSDOF 6
ENDMDL
