REMARK SMILES O=C(O)c1cc(O)c(O)c(N2CCN(Cc3ccccn3)CC2)c1
REMARK SMILES IDX 4 1 5 2 6 3 8 4 10 5 24 6 2 7 1 8 3 9 7 11 11 13 12 14 23 15
REMARK SMILES IDX 13 16 22 17 14 18 15 19 16 20 17 21 21 22 18 23 20 24 19 25
REMARK SMILES IDX 9 26
REMARK H PARENT 3 10 7 12 9 27
ROOT
ATOM      1  C   UNL     1      -3.855   1.336   0.538  1.00  0.00    +0.065 A 
ATOM      2  C   UNL     1      -4.903   0.430   0.353  1.00  0.00    +0.066 A 
ATOM      3  C   UNL     1      -4.598  -0.915   0.222  1.00  0.00    +0.160 A 
ATOM      4  C   UNL     1      -3.271  -1.361   0.263  1.00  0.00    +0.181 A 
ATOM      5  C   UNL     1      -2.189  -0.473   0.435  1.00  0.00    +0.084 A 
ATOM      6  C   UNL     1      -2.522   0.885   0.582  1.00  0.00    +0.045 A 
ENDROOT
BRANCH   1   7
ATOM      7  C   UNL     1      -4.101   2.791   0.692  1.00  0.00    +0.335 C 
ATOM      8  O   UNL     1      -3.249   3.646   0.846  1.00  0.00    -0.246 OA
BRANCH   7   9
ATOM      9  O   UNL     1      -5.407   3.106   0.643  1.00  0.00    -0.478 OA
ATOM     10  H   UNL     1      -5.416   4.080   0.758  1.00  0.00    +0.297 HD
ENDBRANCH   7   9
ENDBRANCH   1   7
BRANCH   3  11
ATOM     11  O   UNL     1      -5.578  -1.859   0.058  1.00  0.00    -0.504 OA
ATOM     12  H   UNL     1      -6.442  -1.411   0.063  1.00  0.00    +0.293 HD
ENDBRANCH   3  11
BRANCH   5  13
ATOM     13  N   UNL     1      -0.861  -0.929   0.486  1.00  0.00    -0.366 N 
ATOM     14  C   UNL     1      -0.398  -1.614  -0.742  1.00  0.00    +0.132 C 
ATOM     15  C   UNL     1       0.165  -0.075   1.113  1.00  0.00    +0.132 C 
ATOM     16  C   UNL     1       0.950  -2.337  -0.494  1.00  0.00    +0.106 C 
ATOM     17  C   UNL     1       1.488  -0.855   1.306  1.00  0.00    +0.106 C 
ATOM     18  N   UNL     1       2.023  -1.496   0.086  1.00  0.00    -0.294 NA
BRANCH  18  19
ATOM     19  C   UNL     1       2.538  -0.536  -0.910  1.00  0.00    +0.140 C 
BRANCH  19  20
ATOM     20  C   UNL     1       3.802   0.201  -0.492  1.00  0.00    +0.054 A 
ATOM     21  C   UNL     1       3.726   1.504   0.003  1.00  0.00    +0.025 A 
ATOM     22  N   UNL     1       4.986  -0.450  -0.628  1.00  0.00    -0.260 NA
ATOM     23  C   UNL     1       4.899   2.153   0.381  1.00  0.00    +0.004 A 
ATOM     24  C   UNL     1       6.106   0.202  -0.248  1.00  0.00    +0.111 A 
ATOM     25  C   UNL     1       6.114   1.491   0.256  1.00  0.00    +0.020 A 
ENDBRANCH  19  20
ENDBRANCH  18  19
ENDBRANCH   5  13
BRANCH   4  26
ATOM     26  O   UNL     1      -3.065  -2.718   0.173  1.00  0.00    -0.503 OA
ATOM     27  H   UNL     1      -3.961  -3.103   0.119  1.00  0.00    +0.293 HD
ENDBRANCH   4  26
TORSDOF 7
