REMARK SMILES Cc1cc(C)c(C/N=N/Nc2ccc3ncnc(-c4ccccc4)c3c2)[nH]1
REMARK SMILES IDX 8 1 9 2 7 3 6 4 2 5 3 6 27 7 4 8 1 9 5 11 10 12 11 14 12 15
REMARK SMILES IDX 26 16 13 17 25 18 14 19 18 20 15 21 17 22 16 23 19 24 20 25
REMARK SMILES IDX 24 26 21 27 23 28 22 29
REMARK H PARENT 27 10 10 13
ROOT
ATOM      1  N   UNL     1       2.224   0.606   0.279  1.00  0.00    -0.165 NA
ATOM      2  N   UNL     1       1.359   1.500   0.245  1.00  0.00    -0.074 NA
ENDROOT
BRANCH   1   3
ATOM      3  C   UNL     1       3.519   1.113   0.755  1.00  0.00    +0.223 C 
BRANCH   3   4
ATOM      4  C   UNL     1       4.577   0.094   0.487  1.00  0.00    +0.042 A 
ATOM      5  C   UNL     1       5.805  -1.308  -0.775  1.00  0.00    +0.012 A 
ATOM      6  C   UNL     1       6.272  -1.392   0.519  1.00  0.00    +0.026 A 
ATOM      7  N   UNL     1       4.776  -0.402  -0.781  1.00  0.00    -0.361 N 
ATOM      8  C   UNL     1       5.501  -0.509   1.326  1.00  0.00    -0.028 A 
ATOM      9  C   UNL     1       6.235  -2.006  -2.011  1.00  0.00    +0.064 C 
ATOM     10  H   UNL     1       4.228  -0.144  -1.591  1.00  0.00    +0.166 HD
ATOM     11  C   UNL     1       5.667  -0.286   2.786  1.00  0.00    +0.046 C 
ENDBRANCH   3   4
ENDBRANCH   1   3
BRANCH   2  12
ATOM     12  N   UNL     1       0.238   0.902  -0.199  1.00  0.00    -0.260 N 
ATOM     13  H   UNL     1       0.237  -0.109  -0.108  1.00  0.00    +0.192 HD
BRANCH  12  14
ATOM     14  C   UNL     1      -1.001   1.530   0.017  1.00  0.00    +0.059 A 
ATOM     15  C   UNL     1      -1.117   2.884   0.330  1.00  0.00    +0.030 A 
ATOM     16  C   UNL     1      -2.182   0.813  -0.203  1.00  0.00    +0.040 A 
ATOM     17  C   UNL     1      -2.376   3.479   0.478  1.00  0.00    +0.031 A 
ATOM     18  C   UNL     1      -3.463   1.417  -0.065  1.00  0.00    +0.029 A 
ATOM     19  C   UNL     1      -3.552   2.767   0.295  1.00  0.00    +0.074 A 
ATOM     20  C   UNL     1      -4.699   0.774  -0.250  1.00  0.00    +0.081 A 
ATOM     21  N   UNL     1      -4.717   3.401   0.465  1.00  0.00    -0.236 NA
ATOM     22  N   UNL     1      -5.887   1.394  -0.066  1.00  0.00    -0.236 NA
ATOM     23  C   UNL     1      -5.830   2.681   0.281  1.00  0.00    +0.223 A 
BRANCH  20  24
ATOM     24  C   UNL     1      -4.826  -0.634  -0.660  1.00  0.00    +0.001 A 
ATOM     25  C   UNL     1      -5.343  -1.591   0.228  1.00  0.00    +0.010 A 
ATOM     26  C   UNL     1      -4.450  -1.053  -1.948  1.00  0.00    +0.010 A 
ATOM     27  C   UNL     1      -5.459  -2.931  -0.151  1.00  0.00    +0.001 A 
ATOM     28  C   UNL     1      -4.567  -2.393  -2.327  1.00  0.00    +0.001 A 
ATOM     29  C   UNL     1      -5.068  -3.331  -1.427  1.00  0.00    +0.000 A 
ENDBRANCH  20  24
ENDBRANCH  12  14
ENDBRANCH   2  12
TORSDOF 5
