REMARK SMILES Cc1cccc(C=C2C(=O)N(C)c3ncnc(C=C(C#N)C#N)c32)c1
REMARK SMILES IDX 7 1 8 2 9 3 10 4 11 5 12 6 13 7 14 8 15 9 16 10 17 11 24 12
REMARK SMILES IDX 6 13 2 14 3 15 25 16 4 17 5 18 1 19 18 20 19 21 20 22 22 23
REMARK SMILES IDX 21 24 23 25
REMARK H PARENT
ROOT
ATOM      1  C   UNL     1       0.448  -0.630  -0.346  1.00  0.00    +0.022 C 
ATOM      2  C   UNL     1      -0.520   0.301  -0.328  1.00  0.00    +0.054 C 
ATOM      3  C   UNL     1      -0.326   1.792  -0.493  1.00  0.00    +0.260 C 
ATOM      4  O   UNL     1       0.709   2.388  -0.722  1.00  0.00    -0.269 OA
ATOM      5  N   UNL     1      -1.591   2.329  -0.325  1.00  0.00    -0.295 N 
ATOM      6  C   UNL     1      -1.921   3.726  -0.388  1.00  0.00    +0.155 C 
ATOM      7  C   UNL     1      -2.550   1.337  -0.102  1.00  0.00    +0.147 A 
ATOM      8  N   UNL     1      -3.850   1.584   0.085  1.00  0.00    -0.218 NA
ATOM      9  C   UNL     1      -4.590   0.487   0.269  1.00  0.00    +0.224 A 
ATOM     10  N   UNL     1      -4.137  -0.783   0.258  1.00  0.00    -0.236 NA
ATOM     11  C   UNL     1      -2.812  -0.972   0.067  1.00  0.00    +0.079 A 
ATOM     12  C   UNL     1      -1.956   0.085  -0.116  1.00  0.00    +0.056 A 
ENDROOT
BRANCH   1  13
ATOM     13  C   UNL     1       1.882  -0.388  -0.534  1.00  0.00    -0.025 A 
ATOM     14  C   UNL     1       4.023   0.434   0.284  1.00  0.00    -0.051 A 
ATOM     15  C   UNL     1       4.635  -0.032  -0.884  1.00  0.00    +0.003 A 
ATOM     16  C   UNL     1       2.646   0.237   0.460  1.00  0.00    +0.011 A 
ATOM     17  C   UNL     1       3.880  -0.662  -1.874  1.00  0.00    +0.001 A 
ATOM     18  C   UNL     1       2.508  -0.840  -1.700  1.00  0.00    +0.008 A 
ATOM     19  C   UNL     1       4.836   1.092   1.360  1.00  0.00    +0.044 C 
ENDBRANCH   1  13
BRANCH  11  20
ATOM     20  C   UNL     1      -2.407  -2.379   0.009  1.00  0.00    +0.060 C 
ATOM     21  C   UNL     1      -2.803  -3.351   0.857  1.00  0.00    +0.131 C 
ATOM     22  C   UNL     1      -2.347  -4.681   0.635  1.00  0.00    +0.111 C 
ATOM     23  C   UNL     1      -3.628  -3.107   1.993  1.00  0.00    +0.111 C 
ATOM     24  N   UNL     1      -1.950  -5.751   0.427  1.00  0.00    -0.192 NA
ATOM     25  N   UNL     1      -4.276  -2.921   2.939  1.00  0.00    -0.192 NA
ENDBRANCH  11  20
TORSDOF 2
