REMARK SMILES Cc1cc(C)c(N(C(=O)c2ccccn2)c2cccc(Br)c2)[nH]1
REMARK SMILES IDX 7 1 6 2 2 3 3 4 23 5 4 6 1 7 5 9 8 10 9 11 10 12 11 13 15 14
REMARK SMILES IDX 12 15 14 16 13 17 16 18 17 19 22 20 18 21 20 22 19 23 21 24
REMARK H PARENT 23 8
ROOT
ATOM      1  N   UNL     1      -0.217  -0.242  -0.150  1.00  0.00    -0.261 N 
ENDROOT
BRANCH   1   2
ATOM      2  C   UNL     1      -1.461  -0.773   0.259  1.00  0.00    +0.120 A 
ATOM      3  C   UNL     1      -3.029  -2.415   0.409  1.00  0.00    +0.014 A 
ATOM      4  C   UNL     1      -3.489  -1.335   1.123  1.00  0.00    +0.028 A 
ATOM      5  N   UNL     1      -1.829  -2.048  -0.133  1.00  0.00    -0.345 N 
ATOM      6  C   UNL     1      -2.531  -0.279   1.009  1.00  0.00    -0.008 A 
ATOM      7  C   UNL     1      -3.619  -3.752   0.164  1.00  0.00    +0.064 C 
ATOM      8  H   UNL     1      -1.266  -2.614  -0.759  1.00  0.00    +0.168 HD
ATOM      9  C   UNL     1      -2.754   1.075   1.588  1.00  0.00    +0.048 C 
ENDBRANCH   1   2
BRANCH   1  10
ATOM     10  C   UNL     1       0.503  -0.884  -1.188  1.00  0.00    +0.282 C 
ATOM     11  O   UNL     1       0.041  -1.782  -1.905  1.00  0.00    -0.266 OA
BRANCH  10  12
ATOM     12  C   UNL     1       1.932  -0.510  -1.438  1.00  0.00    +0.129 A 
ATOM     13  C   UNL     1       2.407  -0.515  -2.747  1.00  0.00    +0.034 A 
ATOM     14  N   UNL     1       2.718  -0.246  -0.362  1.00  0.00    -0.251 NA
ATOM     15  C   UNL     1       3.745  -0.199  -2.967  1.00  0.00    +0.004 A 
ATOM     16  C   UNL     1       4.009   0.058  -0.610  1.00  0.00    +0.112 A 
ATOM     17  C   UNL     1       4.562   0.097  -1.881  1.00  0.00    +0.020 A 
ENDBRANCH  10  12
ENDBRANCH   1  10
BRANCH   1  18
ATOM     18  C   UNL     1       0.214   0.975   0.444  1.00  0.00    +0.052 A 
ATOM     19  C   UNL     1       0.489   2.095  -0.355  1.00  0.00    +0.027 A 
ATOM     20  C   UNL     1       0.415   1.052   1.828  1.00  0.00    +0.042 A 
ATOM     21  C   UNL     1       0.943   3.282   0.224  1.00  0.00    +0.003 A 
ATOM     22  C   UNL     1       0.872   2.240   2.398  1.00  0.00    +0.020 A 
ATOM     23  C   UNL     1       1.134   3.355   1.604  1.00  0.00    +0.016 A 
ATOM     24 Br   UNL     1       1.139   2.339   4.267  1.00  0.00    -0.051 Br
ENDBRANCH   1  18
TORSDOF 4
