MODEL 1
REMARK VINA RESULT:    -8.057      0.000      0.000
REMARK INTER + INTRA:          -9.951
REMARK INTER:                  -9.470
REMARK INTRA:                  -0.481
REMARK UNBOUND:                -0.481
REMARK SMILES Nc1ccc2ncnc(-c3ccc(O)c([N+](=O)[O-])c3)c2c1
REMARK SMILES IDX 2 1 3 2 4 3 5 4 6 5 7 6 8 7 9 8 20 9 21 10 1 11 10 14 11 15
REMARK SMILES IDX 19 16 12 17 15 18 13 19 16 20 17 21 18 22 14 23
REMARK H PARENT 1 12 1 13 14 24
ROOT
ATOM      1  C   UNL     1      28.523  -2.152  53.203  1.00  0.00    +0.032 A 
ATOM      2  C   UNL     1      29.777  -1.609  53.458  1.00  0.00    +0.028 A 
ATOM      3  C   UNL     1      29.915  -0.248  53.748  1.00  0.00    +0.031 A 
ATOM      4  C   UNL     1      28.830   0.615  53.754  1.00  0.00    +0.074 A 
ATOM      5  N   UNL     1      29.040   1.907  54.032  1.00  0.00    -0.236 NA
ATOM      6  C   UNL     1      27.976   2.716  54.001  1.00  0.00    +0.223 A 
ATOM      7  N   UNL     1      26.720   2.354  53.724  1.00  0.00    -0.236 NA
ATOM      8  C   UNL     1      26.525   1.043  53.459  1.00  0.00    +0.082 A 
ATOM      9  C   UNL     1      27.565   0.098  53.450  1.00  0.00    +0.029 A 
ATOM     10  C   UNL     1      27.432  -1.285  53.147  1.00  0.00    +0.038 A 
ENDROOT
BRANCH   1  11
ATOM     11  N   UNL     1      28.396  -3.479  52.789  1.00  0.00    -0.399 N 
ATOM     12  H   UNL     1      29.208  -4.060  52.976  1.00  0.00    +0.156 HD
ATOM     13  H   UNL     1      28.061  -3.590  51.836  1.00  0.00    +0.156 HD
ENDBRANCH   1  11
BRANCH   8  14
ATOM     14  C   UNL     1      25.116   0.710  53.193  1.00  0.00    +0.008 A 
ATOM     15  C   UNL     1      24.432   1.311  52.125  1.00  0.00    +0.015 A 
ATOM     16  C   UNL     1      24.413  -0.187  54.015  1.00  0.00    +0.100 A 
ATOM     17  C   UNL     1      23.089   1.016  51.868  1.00  0.00    +0.054 A 
ATOM     18  C   UNL     1      23.062  -0.483  53.758  1.00  0.00    +0.311 A 
ATOM     19  C   UNL     1      22.399   0.120  52.682  1.00  0.00    +0.194 A 
BRANCH  18  20
ATOM     20  N   UNL     1      22.373  -1.436  54.628  1.00  0.00    +0.066 N 
ATOM     21  O   UNL     1      21.350  -1.986  54.196  1.00  0.00    -0.258 OA
ATOM     22  O   UNL     1      22.850  -1.628  55.758  1.00  0.00    -0.258 OA
ENDBRANCH  18  20
BRANCH  19  23
ATOM     23  O   UNL     1      21.093  -0.092  52.337  1.00  0.00    -0.502 OA
ATOM     24  H   UNL     1      20.705  -0.793  52.903  1.00  0.00    +0.293 HD
ENDBRANCH  19  23
ENDBRANCH   8  14
TORSDOF 4
ENDMDL
MODEL 2
REMARK VINA RESULT:    -7.875      3.231      6.393
REMARK INTER + INTRA:          -9.737
REMARK INTER:                  -9.328
REMARK INTRA:                  -0.408
REMARK UNBOUND:                -0.481
REMARK SMILES Nc1ccc2ncnc(-c3ccc(O)c([N+](=O)[O-])c3)c2c1
REMARK SMILES IDX 2 1 3 2 4 3 5 4 6 5 7 6 8 7 9 8 20 9 21 10 1 11 10 14 11 15
REMARK SMILES IDX 19 16 12 17 15 18 13 19 16 20 17 21 18 22 14 23
REMARK H PARENT 1 12 1 13 14 24
ROOT
ATOM      1  C   UNL     1      22.217   1.355  50.849  1.00  0.00    +0.032 A 
ATOM      2  C   UNL     1      20.958   0.848  51.149  1.00  0.00    +0.028 A 
ATOM      3  C   UNL     1      20.760   0.073  52.296  1.00  0.00    +0.031 A 
ATOM      4  C   UNL     1      21.803  -0.252  53.151  1.00  0.00    +0.074 A 
ATOM      5  N   UNL     1      21.540  -1.005  54.224  1.00  0.00    -0.236 NA
ATOM      6  C   UNL     1      22.574  -1.324  55.011  1.00  0.00    +0.223 A 
ATOM      7  N   UNL     1      23.844  -0.955  54.828  1.00  0.00    -0.236 NA
ATOM      8  C   UNL     1      24.089  -0.184  53.745  1.00  0.00    +0.082 A 
ATOM      9  C   UNL     1      23.088   0.207  52.839  1.00  0.00    +0.029 A 
ATOM     10  C   UNL     1      23.285   0.987  51.666  1.00  0.00    +0.038 A 
ENDROOT
BRANCH   1  11
ATOM     11  N   UNL     1      22.444   2.020  49.642  1.00  0.00    -0.399 N 
ATOM     12  H   UNL     1      22.703   2.997  49.739  1.00  0.00    +0.156 HD
ATOM     13  H   UNL     1      21.714   1.887  48.947  1.00  0.00    +0.156 HD
ENDBRANCH   1  11
BRANCH   8  14
ATOM     14  C   UNL     1      25.502   0.210  53.622  1.00  0.00    +0.008 A 
ATOM     15  C   UNL     1      25.855   1.565  53.513  1.00  0.00    +0.015 A 
ATOM     16  C   UNL     1      26.526  -0.751  53.577  1.00  0.00    +0.100 A 
ATOM     17  C   UNL     1      27.191   1.956  53.380  1.00  0.00    +0.054 A 
ATOM     18  C   UNL     1      27.869  -0.358  53.443  1.00  0.00    +0.311 A 
ATOM     19  C   UNL     1      28.202   0.999  53.344  1.00  0.00    +0.194 A 
BRANCH  18  20
ATOM     20  N   UNL     1      28.905  -1.391  53.418  1.00  0.00    +0.066 N 
ATOM     21  O   UNL     1      28.583  -2.531  53.054  1.00  0.00    -0.258 OA
ATOM     22  O   UNL     1      30.048  -1.064  53.775  1.00  0.00    -0.258 OA
ENDBRANCH  18  20
BRANCH  19  23
ATOM     23  O   UNL     1      29.470   1.496  53.212  1.00  0.00    -0.502 OA
ATOM     24  H   UNL     1      30.011   1.247  53.991  1.00  0.00    +0.293 HD
ENDBRANCH  19  23
ENDBRANCH   8  14
TORSDOF 4
ENDMDL
MODEL 3
REMARK VINA RESULT:    -7.831      3.613      6.321
REMARK INTER + INTRA:          -9.684
REMARK INTER:                  -9.049
REMARK INTRA:                  -0.635
REMARK UNBOUND:                -0.481
REMARK SMILES Nc1ccc2ncnc(-c3ccc(O)c([N+](=O)[O-])c3)c2c1
REMARK SMILES IDX 2 1 3 2 4 3 5 4 6 5 7 6 8 7 9 8 20 9 21 10 1 11 10 14 11 15
REMARK SMILES IDX 19 16 12 17 15 18 13 19 16 20 17 21 18 22 14 23
REMARK H PARENT 1 12 1 13 14 24
ROOT
ATOM      1  C   UNL     1      23.208   4.767  52.223  1.00  0.00    +0.032 A 
ATOM      2  C   UNL     1      22.877   5.333  50.997  1.00  0.00    +0.028 A 
ATOM      3  C   UNL     1      22.297   4.555  49.990  1.00  0.00    +0.031 A 
ATOM      4  C   UNL     1      22.065   3.198  50.152  1.00  0.00    +0.074 A 
ATOM      5  N   UNL     1      21.514   2.517  49.142  1.00  0.00    -0.236 NA
ATOM      6  C   UNL     1      21.332   1.204  49.321  1.00  0.00    +0.223 A 
ATOM      7  N   UNL     1      21.642   0.510  50.420  1.00  0.00    -0.236 NA
ATOM      8  C   UNL     1      22.186   1.217  51.435  1.00  0.00    +0.082 A 
ATOM      9  C   UNL     1      22.437   2.598  51.361  1.00  0.00    +0.029 A 
ATOM     10  C   UNL     1      23.035   3.392  52.378  1.00  0.00    +0.038 A 
ENDROOT
BRANCH   1  11
ATOM     11  N   UNL     1      23.902   5.508  53.181  1.00  0.00    -0.399 N 
ATOM     12  H   UNL     1      24.684   6.044  52.817  1.00  0.00    +0.156 HD
ATOM     13  H   UNL     1      24.155   4.982  54.013  1.00  0.00    +0.156 HD
ENDBRANCH   1  11
BRANCH   8  14
ATOM     14  C   UNL     1      22.475   0.397  52.623  1.00  0.00    +0.008 A 
ATOM     15  C   UNL     1      21.427  -0.108  53.410  1.00  0.00    +0.015 A 
ATOM     16  C   UNL     1      23.796   0.127  53.018  1.00  0.00    +0.100 A 
ATOM     17  C   UNL     1      21.684  -0.876  54.550  1.00  0.00    +0.054 A 
ATOM     18  C   UNL     1      24.055  -0.645  54.165  1.00  0.00    +0.311 A 
ATOM     19  C   UNL     1      22.996  -1.147  54.933  1.00  0.00    +0.194 A 
BRANCH  18  20
ATOM     20  N   UNL     1      25.445  -0.917  54.531  1.00  0.00    +0.066 N 
ATOM     21  O   UNL     1      26.215  -1.312  53.644  1.00  0.00    -0.258 OA
ATOM     22  O   UNL     1      25.769  -0.745  55.717  1.00  0.00    -0.258 OA
ENDBRANCH  18  20
BRANCH  19  23
ATOM     23  O   UNL     1      23.128  -1.907  56.062  1.00  0.00    -0.502 OA
ATOM     24  H   UNL     1      22.980  -2.853  55.849  1.00  0.00    +0.293 HD
ENDBRANCH  19  23
ENDBRANCH   8  14
TORSDOF 4
ENDMDL
MODEL 4
REMARK VINA RESULT:    -7.783      3.058      6.434
REMARK INTER + INTRA:          -9.628
REMARK INTER:                  -8.881
REMARK INTRA:                  -0.748
REMARK UNBOUND:                -0.481
REMARK SMILES Nc1ccc2ncnc(-c3ccc(O)c([N+](=O)[O-])c3)c2c1
REMARK SMILES IDX 2 1 3 2 4 3 5 4 6 5 7 6 8 7 9 8 20 9 21 10 1 11 10 14 11 15
REMARK SMILES IDX 19 16 12 17 15 18 13 19 16 20 17 21 18 22 14 23
REMARK H PARENT 1 12 1 13 14 24
ROOT
ATOM      1  C   UNL     1      23.315   4.775  52.413  1.00  0.00    +0.032 A 
ATOM      2  C   UNL     1      21.996   4.907  51.998  1.00  0.00    +0.028 A 
ATOM      3  C   UNL     1      21.178   3.780  51.863  1.00  0.00    +0.031 A 
ATOM      4  C   UNL     1      21.651   2.498  52.098  1.00  0.00    +0.074 A 
ATOM      5  N   UNL     1      20.813   1.468  51.941  1.00  0.00    -0.236 NA
ATOM      6  C   UNL     1      21.309   0.243  52.147  1.00  0.00    +0.223 A 
ATOM      7  N   UNL     1      22.564  -0.047  52.502  1.00  0.00    -0.236 NA
ATOM      8  C   UNL     1      23.393   1.007  52.668  1.00  0.00    +0.082 A 
ATOM      9  C   UNL     1      22.991   2.339  52.469  1.00  0.00    +0.029 A 
ATOM     10  C   UNL     1      23.820   3.487  52.595  1.00  0.00    +0.038 A 
ENDROOT
BRANCH   1  11
ATOM     11  N   UNL     1      24.169   5.879  52.425  1.00  0.00    -0.399 N 
ATOM     12  H   UNL     1      23.698   6.778  52.379  1.00  0.00    +0.156 HD
ATOM     13  H   UNL     1      24.940   5.819  51.767  1.00  0.00    +0.156 HD
ENDBRANCH   1  11
BRANCH   8  14
ATOM     14  C   UNL     1      24.749   0.617  53.087  1.00  0.00    +0.008 A 
ATOM     15  C   UNL     1      25.757   0.407  52.132  1.00  0.00    +0.015 A 
ATOM     16  C   UNL     1      25.062   0.413  54.442  1.00  0.00    +0.100 A 
ATOM     17  C   UNL     1      27.046   0.022  52.512  1.00  0.00    +0.054 A 
ATOM     18  C   UNL     1      26.359   0.025  54.825  1.00  0.00    +0.311 A 
ATOM     19  C   UNL     1      27.353  -0.171  53.858  1.00  0.00    +0.194 A 
BRANCH  18  20
ATOM     20  N   UNL     1      26.646  -0.160  56.247  1.00  0.00    +0.066 N 
ATOM     21  O   UNL     1      27.698   0.316  56.696  1.00  0.00    -0.258 OA
ATOM     22  O   UNL     1      25.819  -0.795  56.921  1.00  0.00    -0.258 OA
ENDBRANCH  18  20
BRANCH  19  23
ATOM     23  O   UNL     1      28.643  -0.546  54.112  1.00  0.00    -0.502 OA
ATOM     24  H   UNL     1      29.239   0.229  54.034  1.00  0.00    +0.293 HD
ENDBRANCH  19  23
ENDBRANCH   8  14
TORSDOF 4
ENDMDL
MODEL 5
REMARK VINA RESULT:    -7.666      3.117      6.030
REMARK INTER + INTRA:          -9.491
REMARK INTER:                  -9.055
REMARK INTRA:                  -0.436
REMARK UNBOUND:                -0.481
REMARK SMILES Nc1ccc2ncnc(-c3ccc(O)c([N+](=O)[O-])c3)c2c1
REMARK SMILES IDX 2 1 3 2 4 3 5 4 6 5 7 6 8 7 9 8 20 9 21 10 1 11 10 14 11 15
REMARK SMILES IDX 19 16 12 17 15 18 13 19 16 20 17 21 18 22 14 23
REMARK H PARENT 1 12 1 13 14 24
ROOT
ATOM      1  C   UNL     1      22.410  -1.109  54.253  1.00  0.00    +0.032 A 
ATOM      2  C   UNL     1      21.184  -0.859  53.649  1.00  0.00    +0.028 A 
ATOM      3  C   UNL     1      21.097   0.000  52.549  1.00  0.00    +0.031 A 
ATOM      4  C   UNL     1      22.207   0.661  52.044  1.00  0.00    +0.074 A 
ATOM      5  N   UNL     1      22.046   1.473  50.994  1.00  0.00    -0.236 NA
ATOM      6  C   UNL     1      23.132   2.117  50.551  1.00  0.00    +0.223 A 
ATOM      7  N   UNL     1      24.364   2.019  51.056  1.00  0.00    -0.236 NA
ATOM      8  C   UNL     1      24.510   1.184  52.108  1.00  0.00    +0.082 A 
ATOM      9  C   UNL     1      23.443   0.461  52.670  1.00  0.00    +0.029 A 
ATOM     10  C   UNL     1      23.523  -0.405  53.794  1.00  0.00    +0.038 A 
ENDROOT
BRANCH   1  11
ATOM     11  N   UNL     1      22.481  -1.862  55.427  1.00  0.00    -0.399 N 
ATOM     12  H   UNL     1      21.676  -2.457  55.598  1.00  0.00    +0.156 HD
ATOM     13  H   UNL     1      22.741  -1.328  56.251  1.00  0.00    +0.156 HD
ENDBRANCH   1  11
BRANCH   8  14
ATOM     14  C   UNL     1      25.897   1.100  52.594  1.00  0.00    +0.008 A 
ATOM     15  C   UNL     1      26.581   2.259  52.996  1.00  0.00    +0.015 A 
ATOM     16  C   UNL     1      26.582  -0.126  52.637  1.00  0.00    +0.100 A 
ATOM     17  C   UNL     1      27.904   2.199  53.446  1.00  0.00    +0.054 A 
ATOM     18  C   UNL     1      27.912  -0.186  53.089  1.00  0.00    +0.311 A 
ATOM     19  C   UNL     1      28.575   0.979  53.494  1.00  0.00    +0.194 A 
BRANCH  18  20
ATOM     20  N   UNL     1      28.582  -1.487  53.134  1.00  0.00    +0.066 N 
ATOM     21  O   UNL     1      29.820  -1.504  53.150  1.00  0.00    -0.258 OA
ATOM     22  O   UNL     1      27.864  -2.500  53.142  1.00  0.00    -0.258 OA
ENDBRANCH  18  20
BRANCH  19  23
ATOM     23  O   UNL     1      29.863   1.041  53.950  1.00  0.00    -0.502 OA
ATOM     24  H   UNL     1      30.471   0.640  53.294  1.00  0.00    +0.293 HD
ENDBRANCH  19  23
ENDBRANCH   8  14
TORSDOF 4
ENDMDL
MODEL 6
REMARK VINA RESULT:    -7.589      3.032      6.031
REMARK INTER + INTRA:          -9.401
REMARK INTER:                  -8.683
REMARK INTRA:                  -0.718
REMARK UNBOUND:                -0.481
REMARK SMILES Nc1ccc2ncnc(-c3ccc(O)c([N+](=O)[O-])c3)c2c1
REMARK SMILES IDX 2 1 3 2 4 3 5 4 6 5 7 6 8 7 9 8 20 9 21 10 1 11 10 14 11 15
REMARK SMILES IDX 19 16 12 17 15 18 13 19 16 20 17 21 18 22 14 23
REMARK H PARENT 1 12 1 13 14 24
ROOT
ATOM      1  C   UNL     1      21.172  -0.529  53.860  1.00  0.00    +0.032 A 
ATOM      2  C   UNL     1      20.165   0.342  53.464  1.00  0.00    +0.028 A 
ATOM      3  C   UNL     1      20.474   1.516  52.768  1.00  0.00    +0.031 A 
ATOM      4  C   UNL     1      21.783   1.876  52.482  1.00  0.00    +0.074 A 
ATOM      5  N   UNL     1      22.003   3.017  51.820  1.00  0.00    -0.236 NA
ATOM      6  C   UNL     1      23.277   3.348  51.586  1.00  0.00    +0.223 A 
ATOM      7  N   UNL     1      24.352   2.642  51.946  1.00  0.00    -0.236 NA
ATOM      8  C   UNL     1      24.110   1.485  52.603  1.00  0.00    +0.082 A 
ATOM      9  C   UNL     1      22.815   1.036  52.916  1.00  0.00    +0.029 A 
ATOM     10  C   UNL     1      22.495  -0.150  53.631  1.00  0.00    +0.038 A 
ENDROOT
BRANCH   1  11
ATOM     11  N   UNL     1      20.880  -1.633  54.663  1.00  0.00    -0.399 N 
ATOM     12  H   UNL     1      20.686  -2.489  54.152  1.00  0.00    +0.156 HD
ATOM     13  H   UNL     1      20.185  -1.454  55.383  1.00  0.00    +0.156 HD
ENDBRANCH   1  11
BRANCH   8  14
ATOM     14  C   UNL     1      25.335   0.744  52.941  1.00  0.00    +0.008 A 
ATOM     15  C   UNL     1      25.941  -0.100  51.996  1.00  0.00    +0.015 A 
ATOM     16  C   UNL     1      25.911   0.832  54.221  1.00  0.00    +0.100 A 
ATOM     17  C   UNL     1      27.097  -0.823  52.307  1.00  0.00    +0.054 A 
ATOM     18  C   UNL     1      27.073   0.104  54.533  1.00  0.00    +0.311 A 
ATOM     19  C   UNL     1      27.667  -0.725  53.574  1.00  0.00    +0.194 A 
BRANCH  18  20
ATOM     20  N   UNL     1      27.648   0.239  55.872  1.00  0.00    +0.066 N 
ATOM     21  O   UNL     1      26.975  -0.148  56.837  1.00  0.00    -0.258 OA
ATOM     22  O   UNL     1      28.778   0.747  55.961  1.00  0.00    -0.258 OA
ENDBRANCH  18  20
BRANCH  19  23
ATOM     23  O   UNL     1      28.794  -1.476  53.765  1.00  0.00    -0.502 OA
ATOM     24  H   UNL     1      29.316  -1.514  52.935  1.00  0.00    +0.293 HD
ENDBRANCH  19  23
ENDBRANCH   8  14
TORSDOF 4
ENDMDL
MODEL 7
REMARK VINA RESULT:    -7.549      1.130      2.118
REMARK INTER + INTRA:          -9.353
REMARK INTER:                  -8.828
REMARK INTRA:                  -0.525
REMARK UNBOUND:                -0.481
REMARK SMILES Nc1ccc2ncnc(-c3ccc(O)c([N+](=O)[O-])c3)c2c1
REMARK SMILES IDX 2 1 3 2 4 3 5 4 6 5 7 6 8 7 9 8 20 9 21 10 1 11 10 14 11 15
REMARK SMILES IDX 19 16 12 17 15 18 13 19 16 20 17 21 18 22 14 23
REMARK H PARENT 1 12 1 13 14 24
ROOT
ATOM      1  C   UNL     1      28.490  -2.134  53.344  1.00  0.00    +0.032 A 
ATOM      2  C   UNL     1      29.611  -1.339  53.141  1.00  0.00    +0.028 A 
ATOM      3  C   UNL     1      29.518   0.054  53.222  1.00  0.00    +0.031 A 
ATOM      4  C   UNL     1      28.312   0.696  53.466  1.00  0.00    +0.074 A 
ATOM      5  N   UNL     1      28.298   2.032  53.521  1.00  0.00    -0.236 NA
ATOM      6  C   UNL     1      27.114   2.619  53.729  1.00  0.00    +0.223 A 
ATOM      7  N   UNL     1      25.945   1.995  53.893  1.00  0.00    -0.236 NA
ATOM      8  C   UNL     1      25.981   0.645  53.846  1.00  0.00    +0.082 A 
ATOM      9  C   UNL     1      27.162  -0.085  53.623  1.00  0.00    +0.029 A 
ATOM     10  C   UNL     1      27.261  -1.501  53.530  1.00  0.00    +0.038 A 
ENDROOT
BRANCH   1  11
ATOM     11  N   UNL     1      28.552  -3.513  53.138  1.00  0.00    -0.399 N 
ATOM     12  H   UNL     1      29.221  -3.806  52.431  1.00  0.00    +0.156 HD
ATOM     13  H   UNL     1      27.648  -3.959  53.013  1.00  0.00    +0.156 HD
ENDBRANCH   1  11
BRANCH   8  14
ATOM     14  C   UNL     1      24.665   0.022  54.064  1.00  0.00    +0.008 A 
ATOM     15  C   UNL     1      24.454  -0.831  55.160  1.00  0.00    +0.015 A 
ATOM     16  C   UNL     1      23.601   0.234  53.171  1.00  0.00    +0.100 A 
ATOM     17  C   UNL     1      23.215  -1.442  55.374  1.00  0.00    +0.054 A 
ATOM     18  C   UNL     1      22.355  -0.382  53.385  1.00  0.00    +0.311 A 
ATOM     19  C   UNL     1      22.162  -1.221  54.489  1.00  0.00    +0.194 A 
BRANCH  18  20
ATOM     20  N   UNL     1      21.270  -0.119  52.439  1.00  0.00    +0.066 N 
ATOM     21  O   UNL     1      20.107  -0.132  52.868  1.00  0.00    -0.258 OA
ATOM     22  O   UNL     1      21.580   0.091  51.256  1.00  0.00    -0.258 OA
ENDBRANCH  18  20
BRANCH  19  23
ATOM     23  O   UNL     1      20.997  -1.870  54.796  1.00  0.00    -0.502 OA
ATOM     24  H   UNL     1      20.317  -1.223  55.079  1.00  0.00    +0.293 HD
ENDBRANCH  19  23
ENDBRANCH   8  14
TORSDOF 4
ENDMDL
MODEL 8
REMARK VINA RESULT:    -7.435      3.669      6.110
REMARK INTER + INTRA:          -9.220
REMARK INTER:                  -8.839
REMARK INTRA:                  -0.381
REMARK UNBOUND:                -0.481
REMARK SMILES Nc1ccc2ncnc(-c3ccc(O)c([N+](=O)[O-])c3)c2c1
REMARK SMILES IDX 2 1 3 2 4 3 5 4 6 5 7 6 8 7 9 8 20 9 21 10 1 11 10 14 11 15
REMARK SMILES IDX 19 16 12 17 15 18 13 19 16 20 17 21 18 22 14 23
REMARK H PARENT 1 12 1 13 14 24
ROOT
ATOM      1  C   UNL     1      26.503   4.426  49.416  1.00  0.00    +0.032 A 
ATOM      2  C   UNL     1      25.282   4.971  49.038  1.00  0.00    +0.028 A 
ATOM      3  C   UNL     1      24.098   4.561  49.660  1.00  0.00    +0.031 A 
ATOM      4  C   UNL     1      24.086   3.580  50.640  1.00  0.00    +0.074 A 
ATOM      5  N   UNL     1      22.915   3.234  51.185  1.00  0.00    -0.236 NA
ATOM      6  C   UNL     1      22.935   2.264  52.106  1.00  0.00    +0.223 A 
ATOM      7  N   UNL     1      24.019   1.612  52.537  1.00  0.00    -0.236 NA
ATOM      8  C   UNL     1      25.195   1.985  51.985  1.00  0.00    +0.082 A 
ATOM      9  C   UNL     1      25.299   2.983  51.000  1.00  0.00    +0.029 A 
ATOM     10  C   UNL     1      26.498   3.396  50.357  1.00  0.00    +0.038 A 
ENDROOT
BRANCH   1  11
ATOM     11  N   UNL     1      27.667   4.737  48.711  1.00  0.00    -0.399 N 
ATOM     12  H   UNL     1      28.520   4.365  49.118  1.00  0.00    +0.156 HD
ATOM     13  H   UNL     1      27.758   5.719  48.467  1.00  0.00    +0.156 HD
ENDBRANCH   1  11
BRANCH   8  14
ATOM     14  C   UNL     1      26.348   1.249  52.527  1.00  0.00    +0.008 A 
ATOM     15  C   UNL     1      27.374   1.931  53.203  1.00  0.00    +0.015 A 
ATOM     16  C   UNL     1      26.472  -0.141  52.357  1.00  0.00    +0.100 A 
ATOM     17  C   UNL     1      28.483   1.249  53.711  1.00  0.00    +0.054 A 
ATOM     18  C   UNL     1      27.589  -0.826  52.867  1.00  0.00    +0.311 A 
ATOM     19  C   UNL     1      28.597  -0.130  53.546  1.00  0.00    +0.194 A 
BRANCH  18  20
ATOM     20  N   UNL     1      27.670  -2.275  52.682  1.00  0.00    +0.066 N 
ATOM     21  O   UNL     1      26.813  -2.821  51.972  1.00  0.00    -0.258 OA
ATOM     22  O   UNL     1      28.590  -2.876  53.260  1.00  0.00    -0.258 OA
ENDBRANCH  18  20
BRANCH  19  23
ATOM     23  O   UNL     1      29.723  -0.690  54.084  1.00  0.00    -0.502 OA
ATOM     24  H   UNL     1      30.132  -0.071  54.726  1.00  0.00    +0.293 HD
ENDBRANCH  19  23
ENDBRANCH   8  14
TORSDOF 4
ENDMDL
MODEL 9
REMARK VINA RESULT:    -7.354      2.483      3.376
REMARK INTER + INTRA:          -9.124
REMARK INTER:                  -8.891
REMARK INTRA:                  -0.233
REMARK UNBOUND:                -0.481
REMARK SMILES Nc1ccc2ncnc(-c3ccc(O)c([N+](=O)[O-])c3)c2c1
REMARK SMILES IDX 2 1 3 2 4 3 5 4 6 5 7 6 8 7 9 8 20 9 21 10 1 11 10 14 11 15
REMARK SMILES IDX 19 16 12 17 15 18 13 19 16 20 17 21 18 22 14 23
REMARK H PARENT 1 12 1 13 14 24
ROOT
ATOM      1  C   UNL     1      27.388   0.636  55.021  1.00  0.00    +0.032 A 
ATOM      2  C   UNL     1      28.519   1.170  54.418  1.00  0.00    +0.028 A 
ATOM      3  C   UNL     1      28.424   1.829  53.188  1.00  0.00    +0.031 A 
ATOM      4  C   UNL     1      27.221   1.942  52.507  1.00  0.00    +0.074 A 
ATOM      5  N   UNL     1      27.207   2.579  51.331  1.00  0.00    -0.236 NA
ATOM      6  C   UNL     1      26.036   2.644  50.689  1.00  0.00    +0.223 A 
ATOM      7  N   UNL     1      24.876   2.138  51.115  1.00  0.00    -0.236 NA
ATOM      8  C   UNL     1      24.906   1.510  52.311  1.00  0.00    +0.082 A 
ATOM      9  C   UNL     1      26.078   1.367  53.075  1.00  0.00    +0.029 A 
ATOM     10  C   UNL     1      26.183   0.690  54.321  1.00  0.00    +0.038 A 
ENDROOT
BRANCH   1  11
ATOM     11  N   UNL     1      27.499  -0.131  56.182  1.00  0.00    -0.399 N 
ATOM     12  H   UNL     1      27.095  -1.061  56.116  1.00  0.00    +0.156 HD
ATOM     13  H   UNL     1      27.210   0.349  57.030  1.00  0.00    +0.156 HD
ENDBRANCH   1  11
BRANCH   8  14
ATOM     14  C   UNL     1      23.590   1.004  52.733  1.00  0.00    +0.008 A 
ATOM     15  C   UNL     1      23.479  -0.235  53.386  1.00  0.00    +0.015 A 
ATOM     16  C   UNL     1      22.413   1.725  52.468  1.00  0.00    +0.100 A 
ATOM     17  C   UNL     1      22.235  -0.736  53.780  1.00  0.00    +0.054 A 
ATOM     18  C   UNL     1      21.161   1.220  52.864  1.00  0.00    +0.311 A 
ATOM     19  C   UNL     1      21.072  -0.013  53.522  1.00  0.00    +0.194 A 
BRANCH  18  20
ATOM     20  N   UNL     1      19.963   2.012  52.584  1.00  0.00    +0.066 N 
ATOM     21  O   UNL     1      19.985   3.220  52.858  1.00  0.00    -0.258 OA
ATOM     22  O   UNL     1      18.987   1.420  52.095  1.00  0.00    -0.258 OA
ENDBRANCH  18  20
BRANCH  19  23
ATOM     23  O   UNL     1      19.914  -0.599  53.952  1.00  0.00    -0.502 OA
ATOM     24  H   UNL     1      19.151  -0.013  53.765  1.00  0.00    +0.293 HD
ENDBRANCH  19  23
ENDBRANCH   8  14
TORSDOF 4
ENDMDL
