MODEL 1
REMARK VINA RESULT:    -7.044      0.000      0.000
REMARK INTER + INTRA:          -8.918
REMARK INTER:                  -8.485
REMARK INTRA:                  -0.432
REMARK UNBOUND:                -0.432
REMARK SMILES CN1CCN(c2ccc(C=C(N)C(C#N)=C(C#N)C#N)[nH]2)CC1
REMARK SMILES IDX 6 1 7 2 8 3 9 4 21 5 5 7 2 8 3 9 23 10 4 11 22 12 1 13 10 14
REMARK SMILES IDX 11 15 12 16 13 19 14 20 16 21 15 22 17 23 19 24 18 25 20 26
REMARK H PARENT 21 6 12 17 12 18
ROOT
ATOM      1  C   UNL     1      24.470  -0.384  54.011  1.00  0.00    +0.106 A 
ATOM      2  C   UNL     1      23.698  -1.039  54.949  1.00  0.00    +0.047 A 
ATOM      3  C   UNL     1      22.387  -1.178  54.425  1.00  0.00    +0.030 A 
ATOM      4  C   UNL     1      22.391  -0.641  53.157  1.00  0.00    +0.042 A 
ATOM      5  N   UNL     1      23.652  -0.131  52.937  1.00  0.00    -0.342 N 
ATOM      6  H   UNL     1      23.943   0.326  52.084  1.00  0.00    +0.168 HD
ENDROOT
BRANCH   1   7
ATOM      7  N   UNL     1      25.780  -0.018  54.013  1.00  0.00    -0.356 N 
ATOM      8  N   UNL     1      28.711   0.632  53.998  1.00  0.00    -0.303 NA
ATOM      9  C   UNL     1      28.021  -0.068  55.102  1.00  0.00    +0.105 C 
ATOM     10  C   UNL     1      27.803   0.853  52.851  1.00  0.00    +0.105 C 
ATOM     11  C   UNL     1      26.525   0.298  55.245  1.00  0.00    +0.133 C 
ATOM     12  C   UNL     1      26.577  -0.085  52.776  1.00  0.00    +0.133 C 
ATOM     13  C   UNL     1      29.916  -0.094  53.606  1.00  0.00    +0.105 C 
ENDBRANCH   1   7
BRANCH   4  14
ATOM     14  C   UNL     1      21.387  -0.475  52.171  1.00  0.00    +0.053 C 
ATOM     15  C   UNL     1      20.489   0.533  52.186  1.00  0.00    +0.054 C 
BRANCH  15  16
ATOM     16  N   UNL     1      20.456   1.558  53.121  1.00  0.00    -0.398 N 
ATOM     17  H   UNL     1      19.497   1.811  53.375  1.00  0.00    +0.156 HD
ATOM     18  H   UNL     1      20.981   1.359  53.972  1.00  0.00    +0.156 HD
ENDBRANCH  15  16
BRANCH  15  19
ATOM     19  C   UNL     1      19.421   0.535  51.180  1.00  0.00    +0.103 C 
ATOM     20  C   UNL     1      19.671   1.291  49.993  1.00  0.00    +0.103 C 
ATOM     21  C   UNL     1      18.267  -0.146  51.359  1.00  0.00    +0.149 C 
ATOM     22  N   UNL     1      19.868   1.905  49.029  1.00  0.00    -0.192 NA
ATOM     23  C   UNL     1      17.235  -0.135  50.377  1.00  0.00    +0.112 C 
ATOM     24  C   UNL     1      18.037  -0.909  52.540  1.00  0.00    +0.112 C 
ATOM     25  N   UNL     1      16.397  -0.124  49.577  1.00  0.00    -0.192 NA
ATOM     26  N   UNL     1      17.860  -1.543  53.497  1.00  0.00    -0.192 NA
ENDBRANCH  15  19
ENDBRANCH   4  14
TORSDOF 4
ENDMDL
MODEL 2
REMARK VINA RESULT:    -7.030      2.029      8.749
REMARK INTER + INTRA:          -8.900
REMARK INTER:                  -8.581
REMARK INTRA:                  -0.320
REMARK UNBOUND:                -0.432
REMARK SMILES CN1CCN(c2ccc(C=C(N)C(C#N)=C(C#N)C#N)[nH]2)CC1
REMARK SMILES IDX 6 1 7 2 8 3 9 4 21 5 5 7 2 8 3 9 23 10 4 11 22 12 1 13 10 14
REMARK SMILES IDX 11 15 12 16 13 19 14 20 16 21 15 22 17 23 19 24 18 25 20 26
REMARK H PARENT 21 6 12 17 12 18
ROOT
ATOM      1  C   UNL     1      21.825   1.950  52.344  1.00  0.00    +0.106 A 
ATOM      2  C   UNL     1      22.451   3.178  52.422  1.00  0.00    +0.047 A 
ATOM      3  C   UNL     1      23.811   2.961  52.764  1.00  0.00    +0.030 A 
ATOM      4  C   UNL     1      24.003   1.600  52.848  1.00  0.00    +0.042 A 
ATOM      5  N   UNL     1      22.780   1.004  52.628  1.00  0.00    -0.342 N 
ATOM      6  H   UNL     1      22.621   0.006  52.631  1.00  0.00    +0.168 HD
ENDROOT
BRANCH   1   7
ATOM      7  N   UNL     1      20.544   1.604  52.044  1.00  0.00    -0.356 N 
ATOM      8  N   UNL     1      17.768   0.802  51.230  1.00  0.00    -0.303 NA
ATOM      9  C   UNL     1      18.466   2.005  50.729  1.00  0.00    +0.105 C 
ATOM     10  C   UNL     1      18.658  -0.021  52.079  1.00  0.00    +0.105 C 
ATOM     11  C   UNL     1      19.501   2.593  51.717  1.00  0.00    +0.133 C 
ATOM     12  C   UNL     1      20.174   0.190  51.863  1.00  0.00    +0.133 C 
ATOM     13  C   UNL     1      17.212   0.034  50.120  1.00  0.00    +0.105 C 
ENDBRANCH   1   7
BRANCH   4  14
ATOM     14  C   UNL     1      25.124   0.796  53.170  1.00  0.00    +0.053 C 
ATOM     15  C   UNL     1      26.254   0.765  52.431  1.00  0.00    +0.054 C 
BRANCH  15  16
ATOM     16  N   UNL     1      26.492   1.540  51.304  1.00  0.00    -0.398 N 
ATOM     17  H   UNL     1      27.119   2.324  51.506  1.00  0.00    +0.156 HD
ATOM     18  H   UNL     1      26.863   1.016  50.512  1.00  0.00    +0.156 HD
ENDBRANCH  15  16
BRANCH  15  19
ATOM     19  C   UNL     1      27.302  -0.195  52.794  1.00  0.00    +0.103 C 
ATOM     20  C   UNL     1      27.080  -1.552  52.404  1.00  0.00    +0.103 C 
ATOM     21  C   UNL     1      28.420   0.180  53.455  1.00  0.00    +0.149 C 
ATOM     22  N   UNL     1      26.904  -2.655  52.091  1.00  0.00    -0.192 NA
ATOM     23  C   UNL     1      29.430  -0.760  53.806  1.00  0.00    +0.112 C 
ATOM     24  C   UNL     1      28.636   1.539  53.824  1.00  0.00    +0.112 C 
ATOM     25  N   UNL     1      30.251  -1.528  54.090  1.00  0.00    -0.192 NA
ATOM     26  N   UNL     1      28.817   2.651  54.109  1.00  0.00    -0.192 NA
ENDBRANCH  15  19
ENDBRANCH   4  14
TORSDOF 4
ENDMDL
MODEL 3
REMARK VINA RESULT:    -6.947      1.737      8.383
REMARK INTER + INTRA:          -8.800
REMARK INTER:                  -8.698
REMARK INTRA:                  -0.102
REMARK UNBOUND:                -0.432
REMARK SMILES CN1CCN(c2ccc(C=C(N)C(C#N)=C(C#N)C#N)[nH]2)CC1
REMARK SMILES IDX 6 1 7 2 8 3 9 4 21 5 5 7 2 8 3 9 23 10 4 11 22 12 1 13 10 14
REMARK SMILES IDX 11 15 12 16 13 19 14 20 16 21 15 22 17 23 19 24 18 25 20 26
REMARK H PARENT 21 6 12 17 12 18
ROOT
ATOM      1  C   UNL     1      20.325  -0.414  53.167  1.00  0.00    +0.106 A 
ATOM      2  C   UNL     1      20.789  -1.047  54.303  1.00  0.00    +0.047 A 
ATOM      3  C   UNL     1      22.137  -0.654  54.510  1.00  0.00    +0.030 A 
ATOM      4  C   UNL     1      22.460   0.246  53.519  1.00  0.00    +0.042 A 
ATOM      5  N   UNL     1      21.363   0.350  52.692  1.00  0.00    -0.342 N 
ATOM      6  H   UNL     1      21.317   0.944  51.876  1.00  0.00    +0.168 HD
ENDROOT
BRANCH   1   7
ATOM      7  N   UNL     1      19.114  -0.439  52.547  1.00  0.00    -0.356 N 
ATOM      8  N   UNL     1      16.407  -0.354  51.253  1.00  0.00    -0.303 NA
ATOM      9  C   UNL     1      16.633  -0.604  52.692  1.00  0.00    +0.105 C 
ATOM     10  C   UNL     1      17.672  -0.023  50.560  1.00  0.00    +0.105 C 
ATOM     11  C   UNL     1      17.990  -1.271  53.012  1.00  0.00    +0.133 C 
ATOM     12  C   UNL     1      18.811   0.508  51.461  1.00  0.00    +0.133 C 
ATOM     13  C   UNL     1      15.398   0.685  51.066  1.00  0.00    +0.105 C 
ENDBRANCH   1   7
BRANCH   4  14
ATOM     14  C   UNL     1      23.647   0.951  53.199  1.00  0.00    +0.053 C 
ATOM     15  C   UNL     1      24.853   0.357  53.068  1.00  0.00    +0.054 C 
BRANCH  15  16
ATOM     16  N   UNL     1      25.086  -1.007  53.174  1.00  0.00    -0.398 N 
ATOM     17  H   UNL     1      25.798  -1.324  52.510  1.00  0.00    +0.156 HD
ATOM     18  H   UNL     1      25.349  -1.311  54.110  1.00  0.00    +0.156 HD
ENDBRANCH  15  16
BRANCH  15  19
ATOM     19  C   UNL     1      26.031   1.204  52.854  1.00  0.00    +0.103 C 
ATOM     20  C   UNL     1      26.052   1.964  51.643  1.00  0.00    +0.103 C 
ATOM     21  C   UNL     1      27.039   1.271  53.752  1.00  0.00    +0.149 C 
ATOM     22  N   UNL     1      26.076   2.581  50.662  1.00  0.00    -0.192 NA
ATOM     23  C   UNL     1      28.180   2.094  53.533  1.00  0.00    +0.112 C 
ATOM     24  C   UNL     1      26.998   0.520  54.962  1.00  0.00    +0.112 C 
ATOM     25  N   UNL     1      29.108   2.765  53.352  1.00  0.00    -0.192 NA
ATOM     26  N   UNL     1      26.953  -0.080  55.955  1.00  0.00    -0.192 NA
ENDBRANCH  15  19
ENDBRANCH   4  14
TORSDOF 4
ENDMDL
MODEL 4
REMARK VINA RESULT:    -6.918      5.850      8.217
REMARK INTER + INTRA:          -8.765
REMARK INTER:                  -8.379
REMARK INTRA:                  -0.387
REMARK UNBOUND:                -0.432
REMARK SMILES CN1CCN(c2ccc(C=C(N)C(C#N)=C(C#N)C#N)[nH]2)CC1
REMARK SMILES IDX 6 1 7 2 8 3 9 4 21 5 5 7 2 8 3 9 23 10 4 11 22 12 1 13 10 14
REMARK SMILES IDX 11 15 12 16 13 19 14 20 16 21 15 22 17 23 19 24 18 25 20 26
REMARK H PARENT 21 6 12 17 12 18
ROOT
ATOM      1  C   UNL     1      25.782   6.166  49.352  1.00  0.00    +0.106 A 
ATOM      2  C   UNL     1      24.574   6.007  48.704  1.00  0.00    +0.047 A 
ATOM      3  C   UNL     1      23.997   4.784  49.134  1.00  0.00    +0.030 A 
ATOM      4  C   UNL     1      24.845   4.235  50.070  1.00  0.00    +0.042 A 
ATOM      5  N   UNL     1      25.940   5.067  50.162  1.00  0.00    -0.342 N 
ATOM      6  H   UNL     1      26.727   4.910  50.775  1.00  0.00    +0.168 HD
ENDROOT
BRANCH   1   7
ATOM      7  N   UNL     1      26.712   7.157  49.305  1.00  0.00    -0.356 N 
ATOM      8  N   UNL     1      28.856   9.259  49.305  1.00  0.00    -0.303 NA
ATOM      9  C   UNL     1      27.978   8.967  50.459  1.00  0.00    +0.105 C 
ATOM     10  C   UNL     1      28.630   8.299  48.202  1.00  0.00    +0.105 C 
ATOM     11  C   UNL     1      26.588   8.411  50.070  1.00  0.00    +0.133 C 
ATOM     12  C   UNL     1      27.992   6.950  48.606  1.00  0.00    +0.133 C 
ATOM     13  C   UNL     1      30.255   9.289  49.721  1.00  0.00    +0.105 C 
ENDBRANCH   1   7
BRANCH   4  14
ATOM     14  C   UNL     1      24.814   3.034  50.821  1.00  0.00    +0.053 C 
ATOM     15  C   UNL     1      24.587   2.994  52.151  1.00  0.00    +0.054 C 
BRANCH  15  16
ATOM     16  N   UNL     1      24.304   4.095  52.946  1.00  0.00    -0.398 N 
ATOM     17  H   UNL     1      25.148   4.629  53.172  1.00  0.00    +0.156 HD
ATOM     18  H   UNL     1      23.611   4.727  52.547  1.00  0.00    +0.156 HD
ENDBRANCH  15  16
BRANCH  15  19
ATOM     19  C   UNL     1      24.698   1.704  52.842  1.00  0.00    +0.103 C 
ATOM     20  C   UNL     1      23.470   1.029  53.125  1.00  0.00    +0.103 C 
ATOM     21  C   UNL     1      25.894   1.176  53.187  1.00  0.00    +0.149 C 
ATOM     22  N   UNL     1      22.477   0.479  53.359  1.00  0.00    -0.192 NA
ATOM     23  C   UNL     1      25.991  -0.075  53.859  1.00  0.00    +0.112 C 
ATOM     24  C   UNL     1      27.112   1.852  52.884  1.00  0.00    +0.112 C 
ATOM     25  N   UNL     1      26.067  -1.094  54.407  1.00  0.00    -0.192 NA
ATOM     26  N   UNL     1      28.103   2.397  52.621  1.00  0.00    -0.192 NA
ENDBRANCH  15  19
ENDBRANCH   4  14
TORSDOF 4
ENDMDL
MODEL 5
REMARK VINA RESULT:    -6.724      5.377      7.276
REMARK INTER + INTRA:          -8.532
REMARK INTER:                  -8.280
REMARK INTRA:                  -0.252
REMARK UNBOUND:                -0.432
REMARK SMILES CN1CCN(c2ccc(C=C(N)C(C#N)=C(C#N)C#N)[nH]2)CC1
REMARK SMILES IDX 6 1 7 2 8 3 9 4 21 5 5 7 2 8 3 9 23 10 4 11 22 12 1 13 10 14
REMARK SMILES IDX 11 15 12 16 13 19 14 20 16 21 15 22 17 23 19 24 18 25 20 26
REMARK H PARENT 21 6 12 17 12 18
ROOT
ATOM      1  C   UNL     1      25.975   4.876  49.699  1.00  0.00    +0.106 A 
ATOM      2  C   UNL     1      26.880   3.871  49.424  1.00  0.00    +0.047 A 
ATOM      3  C   UNL     1      26.380   2.662  49.973  1.00  0.00    +0.030 A 
ATOM      4  C   UNL     1      25.155   2.942  50.537  1.00  0.00    +0.042 A 
ATOM      5  N   UNL     1      24.943   4.296  50.396  1.00  0.00    -0.342 N 
ATOM      6  H   UNL     1      24.120   4.783  50.720  1.00  0.00    +0.168 HD
ENDROOT
BRANCH   1   7
ATOM      7  N   UNL     1      25.972   6.201  49.390  1.00  0.00    -0.356 N 
ATOM      8  N   UNL     1      26.114   9.136  48.776  1.00  0.00    -0.303 NA
ATOM      9  C   UNL     1      25.960   8.578  50.137  1.00  0.00    +0.105 C 
ATOM     10  C   UNL     1      26.318   8.066  47.776  1.00  0.00    +0.105 C 
ATOM     11  C   UNL     1      25.243   7.209  50.180  1.00  0.00    +0.133 C 
ATOM     12  C   UNL     1      26.851   6.723  48.330  1.00  0.00    +0.133 C 
ATOM     13  C   UNL     1      27.191  10.122  48.746  1.00  0.00    +0.105 C 
ENDBRANCH   1   7
BRANCH   4  14
ATOM     14  C   UNL     1      24.209   2.156  51.240  1.00  0.00    +0.053 C 
ATOM     15  C   UNL     1      24.264   1.938  52.572  1.00  0.00    +0.054 C 
BRANCH  15  16
ATOM     16  N   UNL     1      25.206   2.487  53.431  1.00  0.00    -0.398 N 
ATOM     17  H   UNL     1      24.935   3.422  53.746  1.00  0.00    +0.156 HD
ATOM     18  H   UNL     1      25.408   1.910  54.247  1.00  0.00    +0.156 HD
ENDBRANCH  15  16
BRANCH  15  19
ATOM     19  C   UNL     1      23.299   1.009  53.171  1.00  0.00    +0.103 C 
ATOM     20  C   UNL     1      21.918   1.339  53.008  1.00  0.00    +0.103 C 
ATOM     21  C   UNL     1      23.691  -0.101  53.835  1.00  0.00    +0.149 C 
ATOM     22  N   UNL     1      20.796   1.604  52.880  1.00  0.00    -0.192 NA
ATOM     23  C   UNL     1      22.746  -0.995  54.415  1.00  0.00    +0.112 C 
ATOM     24  C   UNL     1      25.071  -0.427  53.976  1.00  0.00    +0.112 C 
ATOM     25  N   UNL     1      21.975  -1.720  54.886  1.00  0.00    -0.192 NA
ATOM     26  N   UNL     1      26.195  -0.698  54.076  1.00  0.00    -0.192 NA
ENDBRANCH  15  19
ENDBRANCH   4  14
TORSDOF 4
ENDMDL
MODEL 6
REMARK VINA RESULT:    -6.709      2.843      8.064
REMARK INTER + INTRA:          -8.514
REMARK INTER:                  -8.053
REMARK INTRA:                  -0.461
REMARK UNBOUND:                -0.432
REMARK SMILES CN1CCN(c2ccc(C=C(N)C(C#N)=C(C#N)C#N)[nH]2)CC1
REMARK SMILES IDX 6 1 7 2 8 3 9 4 21 5 5 7 2 8 3 9 23 10 4 11 22 12 1 13 10 14
REMARK SMILES IDX 11 15 12 16 13 19 14 20 16 21 15 22 17 23 19 24 18 25 20 26
REMARK H PARENT 21 6 12 17 12 18
ROOT
ATOM      1  C   UNL     1      20.642  -0.132  52.790  1.00  0.00    +0.106 A 
ATOM      2  C   UNL     1      21.246  -0.658  53.914  1.00  0.00    +0.047 A 
ATOM      3  C   UNL     1      22.634  -0.372  53.845  1.00  0.00    +0.030 A 
ATOM      4  C   UNL     1      22.848   0.362  52.699  1.00  0.00    +0.042 A 
ATOM      5  N   UNL     1      21.636   0.464  52.052  1.00  0.00    -0.342 N 
ATOM      6  H   UNL     1      21.494   0.952  51.179  1.00  0.00    +0.168 HD
ENDROOT
BRANCH   1   7
ATOM      7  N   UNL     1      19.344  -0.120  52.381  1.00  0.00    -0.356 N 
ATOM      8  N   UNL     1      16.508  -0.237  51.404  1.00  0.00    -0.303 NA
ATOM      9  C   UNL     1      17.679  -0.003  50.531  1.00  0.00    +0.105 C 
ATOM     10  C   UNL     1      16.924  -0.534  52.792  1.00  0.00    +0.105 C 
ATOM     11  C   UNL     1      18.868   0.685  51.242  1.00  0.00    +0.133 C 
ATOM     12  C   UNL     1      18.369  -1.058  52.962  1.00  0.00    +0.133 C 
ATOM     13  C   UNL     1      15.661  -1.291  50.852  1.00  0.00    +0.105 C 
ENDBRANCH   1   7
BRANCH   4  14
ATOM     14  C   UNL     1      24.010   0.904  52.097  1.00  0.00    +0.053 C 
ATOM     15  C   UNL     1      24.392   2.192  52.243  1.00  0.00    +0.054 C 
BRANCH  15  16
ATOM     16  N   UNL     1      23.742   3.132  53.030  1.00  0.00    -0.398 N 
ATOM     17  H   UNL     1      24.401   3.692  53.577  1.00  0.00    +0.156 HD
ATOM     18  H   UNL     1      23.131   3.759  52.508  1.00  0.00    +0.156 HD
ENDBRANCH  15  16
BRANCH  15  19
ATOM     19  C   UNL     1      25.546   2.671  51.475  1.00  0.00    +0.103 C 
ATOM     20  C   UNL     1      26.834   2.403  52.036  1.00  0.00    +0.103 C 
ATOM     21  C   UNL     1      25.405   3.324  50.300  1.00  0.00    +0.149 C 
ATOM     22  N   UNL     1      27.881   2.191  52.487  1.00  0.00    -0.192 NA
ATOM     23  C   UNL     1      26.532   3.788  49.564  1.00  0.00    +0.112 C 
ATOM     24  C   UNL     1      24.115   3.570  49.745  1.00  0.00    +0.112 C 
ATOM     25  N   UNL     1      27.452   4.164  48.968  1.00  0.00    -0.192 NA
ATOM     26  N   UNL     1      23.064   3.754  49.288  1.00  0.00    -0.192 NA
ENDBRANCH  15  19
ENDBRANCH   4  14
TORSDOF 4
ENDMDL
MODEL 7
REMARK VINA RESULT:    -6.685      2.070      8.536
REMARK INTER + INTRA:          -8.485
REMARK INTER:                  -8.227
REMARK INTRA:                  -0.258
REMARK UNBOUND:                -0.432
REMARK SMILES CN1CCN(c2ccc(C=C(N)C(C#N)=C(C#N)C#N)[nH]2)CC1
REMARK SMILES IDX 6 1 7 2 8 3 9 4 21 5 5 7 2 8 3 9 23 10 4 11 22 12 1 13 10 14
REMARK SMILES IDX 11 15 12 16 13 19 14 20 16 21 15 22 17 23 19 24 18 25 20 26
REMARK H PARENT 21 6 12 17 12 18
ROOT
ATOM      1  C   UNL     1      22.298   1.774  52.586  1.00  0.00    +0.106 A 
ATOM      2  C   UNL     1      22.545   3.122  52.416  1.00  0.00    +0.047 A 
ATOM      3  C   UNL     1      23.903   3.369  52.744  1.00  0.00    +0.030 A 
ATOM      4  C   UNL     1      24.475   2.159  53.070  1.00  0.00    +0.042 A 
ATOM      5  N   UNL     1      23.478   1.209  53.006  1.00  0.00    -0.342 N 
ATOM      6  H   UNL     1      23.612   0.227  53.197  1.00  0.00    +0.168 HD
ENDROOT
BRANCH   1   7
ATOM      7  N   UNL     1      21.176   1.028  52.399  1.00  0.00    -0.356 N 
ATOM      8  N   UNL     1      18.622  -0.518  52.089  1.00  0.00    -0.303 NA
ATOM      9  C   UNL     1      19.436  -0.498  53.323  1.00  0.00    +0.105 C 
ATOM     10  C   UNL     1      19.155   0.421  51.078  1.00  0.00    +0.105 C 
ATOM     11  C   UNL     1      20.945  -0.259  53.079  1.00  0.00    +0.133 C 
ATOM     12  C   UNL     1      20.044   1.562  51.624  1.00  0.00    +0.133 C 
ATOM     13  C   UNL     1      17.220  -0.246  52.397  1.00  0.00    +0.105 C 
ENDBRANCH   1   7
BRANCH   4  14
ATOM     14  C   UNL     1      25.773   1.783  53.494  1.00  0.00    +0.053 C 
ATOM     15  C   UNL     1      26.676   1.186  52.687  1.00  0.00    +0.054 C 
BRANCH  15  16
ATOM     16  N   UNL     1      26.483   0.910  51.341  1.00  0.00    -0.398 N 
ATOM     17  H   UNL     1      26.631   1.738  50.757  1.00  0.00    +0.156 HD
ATOM     18  H   UNL     1      27.062   0.149  50.987  1.00  0.00    +0.156 HD
ENDBRANCH  15  16
BRANCH  15  19
ATOM     19  C   UNL     1      27.944   0.733  53.269  1.00  0.00    +0.103 C 
ATOM     20  C   UNL     1      28.747   1.737  53.896  1.00  0.00    +0.103 C 
ATOM     21  C   UNL     1      28.333  -0.561  53.224  1.00  0.00    +0.149 C 
ATOM     22  N   UNL     1      29.402   2.547  54.404  1.00  0.00    -0.192 NA
ATOM     23  C   UNL     1      29.567  -0.990  53.790  1.00  0.00    +0.112 C 
ATOM     24  C   UNL     1      27.515  -1.554  52.610  1.00  0.00    +0.112 C 
ATOM     25  N   UNL     1      30.573  -1.335  54.251  1.00  0.00    -0.192 NA
ATOM     26  N   UNL     1      26.840  -2.363  52.124  1.00  0.00    -0.192 NA
ENDBRANCH  15  19
ENDBRANCH   4  14
TORSDOF 4
ENDMDL
MODEL 8
REMARK VINA RESULT:    -6.677      5.211      7.414
REMARK INTER + INTRA:          -8.475
REMARK INTER:                  -8.173
REMARK INTRA:                  -0.302
REMARK UNBOUND:                -0.432
REMARK SMILES CN1CCN(c2ccc(C=C(N)C(C#N)=C(C#N)C#N)[nH]2)CC1
REMARK SMILES IDX 6 1 7 2 8 3 9 4 21 5 5 7 2 8 3 9 23 10 4 11 22 12 1 13 10 14
REMARK SMILES IDX 11 15 12 16 13 19 14 20 16 21 15 22 17 23 19 24 18 25 20 26
REMARK H PARENT 21 6 12 17 12 18
ROOT
ATOM      1  C   UNL     1      25.459   4.975  49.806  1.00  0.00    +0.106 A 
ATOM      2  C   UNL     1      26.575   4.261  49.419  1.00  0.00    +0.047 A 
ATOM      3  C   UNL     1      26.473   2.952  49.958  1.00  0.00    +0.030 A 
ATOM      4  C   UNL     1      25.274   2.876  50.632  1.00  0.00    +0.042 A 
ATOM      5  N   UNL     1      24.691   4.122  50.562  1.00  0.00    -0.342 N 
ATOM      6  H   UNL     1      23.799   4.359  50.972  1.00  0.00    +0.168 HD
ENDROOT
BRANCH   1   7
ATOM      7  N   UNL     1      25.068   6.253  49.552  1.00  0.00    -0.356 N 
ATOM      8  N   UNL     1      24.328   9.084  48.883  1.00  0.00    -0.303 NA
ATOM      9  C   UNL     1      25.541   8.698  49.635  1.00  0.00    +0.105 C 
ATOM     10  C   UNL     1      23.599   7.894  48.392  1.00  0.00    +0.105 C 
ATOM     11  C   UNL     1      25.393   7.384  50.438  1.00  0.00    +0.133 C 
ATOM     12  C   UNL     1      24.434   6.599  48.268  1.00  0.00    +0.133 C 
ATOM     13  C   UNL     1      24.670   9.999  47.797  1.00  0.00    +0.105 C 
ENDBRANCH   1   7
BRANCH   4  14
ATOM     14  C   UNL     1      24.645   1.850  51.378  1.00  0.00    +0.053 C 
ATOM     15  C   UNL     1      24.530   1.871  52.723  1.00  0.00    +0.054 C 
BRANCH  15  16
ATOM     16  N   UNL     1      24.956   2.905  53.544  1.00  0.00    -0.398 N 
ATOM     17  H   UNL     1      25.976   2.998  53.542  1.00  0.00    +0.156 HD
ATOM     18  H   UNL     1      24.543   3.810  53.319  1.00  0.00    +0.156 HD
ENDBRANCH  15  16
BRANCH  15  19
ATOM     19  C   UNL     1      23.966   0.696  53.397  1.00  0.00    +0.103 C 
ATOM     20  C   UNL     1      24.904  -0.210  53.982  1.00  0.00    +0.103 C 
ATOM     21  C   UNL     1      22.633   0.481  53.467  1.00  0.00    +0.149 C 
ATOM     22  N   UNL     1      25.661  -0.948  54.457  1.00  0.00    -0.192 NA
ATOM     23  C   UNL     1      22.095  -0.664  54.120  1.00  0.00    +0.112 C 
ATOM     24  C   UNL     1      21.708   1.400  52.892  1.00  0.00    +0.112 C 
ATOM     25  N   UNL     1      21.661  -1.598  54.653  1.00  0.00    -0.192 NA
ATOM     26  N   UNL     1      20.956   2.159  52.438  1.00  0.00    -0.192 NA
ENDBRANCH  15  19
ENDBRANCH   4  14
TORSDOF 4
ENDMDL
MODEL 9
REMARK VINA RESULT:    -6.618      4.278      5.299
REMARK INTER + INTRA:          -8.404
REMARK INTER:                  -8.119
REMARK INTRA:                  -0.285
REMARK UNBOUND:                -0.432
REMARK SMILES CN1CCN(c2ccc(C=C(N)C(C#N)=C(C#N)C#N)[nH]2)CC1
REMARK SMILES IDX 6 1 7 2 8 3 9 4 21 5 5 7 2 8 3 9 23 10 4 11 22 12 1 13 10 14
REMARK SMILES IDX 11 15 12 16 13 19 14 20 16 21 15 22 17 23 19 24 18 25 20 26
REMARK H PARENT 21 6 12 17 12 18
ROOT
ATOM      1  C   UNL     1      24.888   0.966  52.929  1.00  0.00    +0.106 A 
ATOM      2  C   UNL     1      23.550   0.680  53.113  1.00  0.00    +0.047 A 
ATOM      3  C   UNL     1      22.789   1.701  52.488  1.00  0.00    +0.030 A 
ATOM      4  C   UNL     1      23.675   2.573  51.896  1.00  0.00    +0.042 A 
ATOM      5  N   UNL     1      24.944   2.133  52.206  1.00  0.00    -0.342 N 
ATOM      6  H   UNL     1      25.795   2.584  51.902  1.00  0.00    +0.168 HD
ENDROOT
BRANCH   1   7
ATOM      7  N   UNL     1      26.016   0.310  53.314  1.00  0.00    -0.356 N 
ATOM      8  N   UNL     1      28.581  -1.073  54.034  1.00  0.00    -0.303 NA
ATOM      9  C   UNL     1      27.742  -1.431  52.870  1.00  0.00    +0.105 C 
ATOM     10  C   UNL     1      28.064   0.132  54.719  1.00  0.00    +0.105 C 
ATOM     11  C   UNL     1      26.238  -1.124  53.058  1.00  0.00    +0.133 C 
ATOM     12  C   UNL     1      27.162   1.053  53.865  1.00  0.00    +0.133 C 
ATOM     13  C   UNL     1      29.975  -0.913  53.630  1.00  0.00    +0.105 C 
ENDBRANCH   1   7
BRANCH   4  14
ATOM     14  C   UNL     1      23.511   3.773  51.161  1.00  0.00    +0.053 C 
ATOM     15  C   UNL     1      23.463   4.995  51.733  1.00  0.00    +0.054 C 
BRANCH  15  16
ATOM     16  N   UNL     1      23.619   5.249  53.088  1.00  0.00    -0.398 N 
ATOM     17  H   UNL     1      23.705   4.384  53.630  1.00  0.00    +0.156 HD
ATOM     18  H   UNL     1      24.408   5.856  53.308  1.00  0.00    +0.156 HD
ENDBRANCH  15  16
BRANCH  15  19
ATOM     19  C   UNL     1      23.169   6.155  50.883  1.00  0.00    +0.103 C 
ATOM     20  C   UNL     1      24.257   7.047  50.631  1.00  0.00    +0.103 C 
ATOM     21  C   UNL     1      21.941   6.366  50.360  1.00  0.00    +0.149 C 
ATOM     22  N   UNL     1      25.135   7.776  50.426  1.00  0.00    -0.192 NA
ATOM     23  C   UNL     1      21.664   7.496  49.539  1.00  0.00    +0.112 C 
ATOM     24  C   UNL     1      20.869   5.460  50.606  1.00  0.00    +0.112 C 
ATOM     25  N   UNL     1      21.442   8.417  48.871  1.00  0.00    -0.192 NA
ATOM     26  N   UNL     1      20.003   4.710  50.795  1.00  0.00    -0.192 NA
ENDBRANCH  15  19
ENDBRANCH   4  14
TORSDOF 4
ENDMDL
