REMARK SMILES N#CC(C#N)=C(N)C(C#N)=C1C(=O)Nc2ncnc(-c3ccccc3)c21
REMARK SMILES IDX 1 1 2 2 3 3 4 4 5 5 6 6 7 7 8 10 9 11 11 12 10 13 12 14
REMARK SMILES IDX 26 15 13 16 14 17 19 18 15 19 18 20 16 21 17 22 20 24 21 25
REMARK SMILES IDX 25 26 22 27 24 28 23 29
REMARK H PARENT 7 8 7 9 14 23
ROOT
ATOM      1  N   UNL     1       5.064   3.334  -0.836  1.00  0.00    -0.192 NA
ATOM      2  C   UNL     1       4.081   2.720  -0.771  1.00  0.00    +0.113 C 
ATOM      3  C   UNL     1       2.867   1.990  -0.641  1.00  0.00    +0.153 C 
ATOM      4  C   UNL     1       1.902   2.128  -1.681  1.00  0.00    +0.113 C 
ATOM      5  N   UNL     1       1.070   2.209  -2.486  1.00  0.00    -0.192 NA
ATOM      6  C   UNL     1       2.637   1.203   0.446  1.00  0.00    +0.079 C 
ENDROOT
BRANCH   6   7
ATOM      7  N   UNL     1       3.527   1.025   1.502  1.00  0.00    -0.396 N 
ATOM      8  H   UNL     1       3.114   0.832   2.415  1.00  0.00    +0.156 HD
ATOM      9  H   UNL     1       4.303   1.685   1.566  1.00  0.00    +0.156 HD
ENDBRANCH   6   7
BRANCH   6  10
ATOM     10  C   UNL     1       1.374   0.433   0.558  1.00  0.00    +0.091 C 
ATOM     11  C   UNL     1       0.479   0.932   1.556  1.00  0.00    +0.102 C 
ATOM     12  C   UNL     1       1.127  -0.706  -0.126  1.00  0.00    +0.073 C 
ATOM     13  N   UNL     1      -0.158   1.354   2.428  1.00  0.00    -0.192 NA
ATOM     14  C   UNL     1       2.213  -1.401  -0.915  1.00  0.00    +0.259 C 
ATOM     15  C   UNL     1      -0.019  -1.631  -0.131  1.00  0.00    +0.058 A 
ATOM     16  O   UNL     1       3.260  -0.936  -1.316  1.00  0.00    -0.269 OA
ATOM     17  N   UNL     1       1.756  -2.686  -1.091  1.00  0.00    -0.306 N 
ATOM     18  C   UNL     1      -1.374  -1.600   0.096  1.00  0.00    +0.084 A 
ATOM     19  C   UNL     1       0.451  -2.829  -0.647  1.00  0.00    +0.145 A 
ATOM     20  N   UNL     1      -2.122  -2.732  -0.007  1.00  0.00    -0.236 NA
ATOM     21  N   UNL     1      -0.236  -3.958  -0.808  1.00  0.00    -0.218 NA
ATOM     22  C   UNL     1      -1.516  -3.853  -0.439  1.00  0.00    +0.224 A 
ATOM     23  H   UNL     1       2.249  -3.407  -1.595  1.00  0.00    +0.171 HD
BRANCH  18  24
ATOM     24  C   UNL     1      -2.164  -0.383   0.314  1.00  0.00    +0.001 A 
ATOM     25  C   UNL     1      -3.041  -0.282   1.407  1.00  0.00    +0.010 A 
ATOM     26  C   UNL     1      -2.108   0.693  -0.591  1.00  0.00    +0.010 A 
ATOM     27  C   UNL     1      -3.807   0.869   1.610  1.00  0.00    +0.001 A 
ATOM     28  C   UNL     1      -2.873   1.844  -0.388  1.00  0.00    +0.001 A 
ATOM     29  C   UNL     1      -3.718   1.933   0.716  1.00  0.00    +0.000 A 
ENDBRANCH  18  24
ENDBRANCH   6  10
TORSDOF 3
