REMARK SMILES Cc1cccc(C=C2C(=O)N(C)c3ncnc(Nc4ccc(F)c(Cl)c4)c32)c1
REMARK SMILES IDX 7 1 8 2 9 3 10 4 11 5 12 6 13 7 14 8 15 9 16 10 17 11 27 12
REMARK SMILES IDX 6 13 2 14 3 15 28 16 4 17 5 18 1 19 18 20 19 22 20 23 26 24
REMARK SMILES IDX 21 25 24 26 22 27 25 28 23 29
REMARK H PARENT 18 21
ROOT
ATOM      1  C   UNL     1      -0.985  -0.114  -0.360  1.00  0.00    +0.023 C 
ATOM      2  C   UNL     1      -0.547   0.947   0.338  1.00  0.00    +0.055 C 
ATOM      3  C   UNL     1      -1.379   2.103   0.843  1.00  0.00    +0.260 C 
ATOM      4  O   UNL     1      -2.586   2.231   0.793  1.00  0.00    -0.269 OA
ATOM      5  N   UNL     1      -0.457   2.990   1.377  1.00  0.00    -0.295 N 
ATOM      6  C   UNL     1      -0.766   4.260   1.973  1.00  0.00    +0.155 C 
ATOM      7  C   UNL     1       0.849   2.499   1.282  1.00  0.00    +0.148 A 
ATOM      8  N   UNL     1       1.926   3.148   1.728  1.00  0.00    -0.218 NA
ATOM      9  C   UNL     1       3.065   2.475   1.546  1.00  0.00    +0.226 A 
ATOM     10  N   UNL     1       3.188   1.251   0.998  1.00  0.00    -0.218 NA
ATOM     11  C   UNL     1       2.069   0.623   0.576  1.00  0.00    +0.144 A 
ATOM     12  C   UNL     1       0.847   1.250   0.683  1.00  0.00    +0.073 A 
ENDROOT
BRANCH   1  13
ATOM     13  C   UNL     1      -2.372  -0.419  -0.729  1.00  0.00    -0.025 A 
ATOM     14  C   UNL     1      -4.658  -1.015  -0.130  1.00  0.00    -0.051 A 
ATOM     15  C   UNL     1      -4.981  -1.097  -1.489  1.00  0.00    +0.003 A 
ATOM     16  C   UNL     1      -3.350  -0.669   0.241  1.00  0.00    +0.011 A 
ATOM     17  C   UNL     1      -4.009  -0.862  -2.461  1.00  0.00    +0.001 A 
ATOM     18  C   UNL     1      -2.707  -0.531  -2.083  1.00  0.00    +0.008 A 
ATOM     19  C   UNL     1      -5.711  -1.222   0.917  1.00  0.00    +0.044 C 
ENDBRANCH   1  13
BRANCH  11  20
ATOM     20  N   UNL     1       2.153  -0.687   0.050  1.00  0.00    -0.339 N 
ATOM     21  H   UNL     1       1.515  -1.290   0.562  1.00  0.00    +0.168 HD
BRANCH  20  22
ATOM     22  C   UNL     1       3.303  -1.391  -0.374  1.00  0.00    +0.041 A 
ATOM     23  C   UNL     1       3.270  -2.796  -0.396  1.00  0.00    +0.029 A 
ATOM     24  C   UNL     1       4.435  -0.747  -0.894  1.00  0.00    +0.049 A 
ATOM     25  C   UNL     1       4.359  -3.536  -0.863  1.00  0.00    +0.043 A 
ATOM     26  C   UNL     1       5.526  -1.484  -1.362  1.00  0.00    +0.078 A 
ATOM     27  C   UNL     1       5.485  -2.874  -1.339  1.00  0.00    +0.141 A 
ATOM     28 Cl   UNL     1       6.907  -0.659  -1.976  1.00  0.00    -0.081 Cl
ATOM     29  F   UNL     1       6.519  -3.602  -1.786  1.00  0.00    -0.205 F 
ENDBRANCH  20  22
ENDBRANCH  11  20
TORSDOF 3
