MODEL 1
REMARK VINA RESULT:    -6.886      0.000      0.000
REMARK INTER + INTRA:          -8.403
REMARK INTER:                  -7.893
REMARK INTRA:                  -0.510
REMARK UNBOUND:                -0.510
REMARK SMILES O=[N+]([O-])c1cc(-c2ccccn2)ccc1O
REMARK SMILES IDX 4 1 5 2 6 3 13 4 14 5 15 6 2 7 1 8 3 9 16 10 7 12 8 13 12 14
REMARK SMILES IDX 9 15 11 16 10 17
REMARK H PARENT 16 11
ROOT
ATOM      1  C   UNL     1      23.425  -0.523  53.863  1.00  0.00    +0.311 A 
ATOM      2  C   UNL     1      24.798  -0.809  54.003  1.00  0.00    +0.100 A 
ATOM      3  C   UNL     1      25.764  -0.099  53.269  1.00  0.00    +0.007 A 
ATOM      4  C   UNL     1      25.303   0.911  52.403  1.00  0.00    +0.015 A 
ATOM      5  C   UNL     1      23.940   1.197  52.261  1.00  0.00    +0.054 A 
ATOM      6  C   UNL     1      22.996   0.482  52.990  1.00  0.00    +0.194 A 
ENDROOT
BRANCH   1   7
ATOM      7  N   UNL     1      22.462  -1.300  54.649  1.00  0.00    +0.066 N 
ATOM      8  O   UNL     1      21.366  -1.562  54.135  1.00  0.00    -0.258 OA
ATOM      9  O   UNL     1      22.802  -1.645  55.792  1.00  0.00    -0.258 OA
ENDBRANCH   1   7
BRANCH   6  10
ATOM     10  O   UNL     1      21.695   0.844  52.774  1.00  0.00    -0.502 OA
ATOM     11  H   UNL     1      21.516   0.900  51.812  1.00  0.00    +0.293 HD
ENDBRANCH   6  10
BRANCH   3  12
ATOM     12  C   UNL     1      27.211  -0.376  53.395  1.00  0.00    +0.070 A 
ATOM     13  C   UNL     1      28.144   0.594  53.762  1.00  0.00    +0.029 A 
ATOM     14  N   UNL     1      27.586  -1.655  53.135  1.00  0.00    -0.256 NA
ATOM     15  C   UNL     1      29.492   0.247  53.854  1.00  0.00    +0.004 A 
ATOM     16  C   UNL     1      28.897  -1.964  53.228  1.00  0.00    +0.111 A 
ATOM     17  C   UNL     1      29.879  -1.057  53.580  1.00  0.00    +0.020 A 
ENDBRANCH   3  12
TORSDOF 3
ENDMDL
MODEL 2
REMARK VINA RESULT:    -6.857      3.301      5.627
REMARK INTER + INTRA:          -8.370
REMARK INTER:                  -7.838
REMARK INTRA:                  -0.532
REMARK UNBOUND:                -0.510
REMARK SMILES O=[N+]([O-])c1cc(-c2ccccn2)ccc1O
REMARK SMILES IDX 4 1 5 2 6 3 13 4 14 5 15 6 2 7 1 8 3 9 16 10 7 12 8 13 12 14
REMARK SMILES IDX 9 15 11 16 10 17
REMARK H PARENT 16 11
ROOT
ATOM      1  C   UNL     1      27.039   0.550  54.112  1.00  0.00    +0.311 A 
ATOM      2  C   UNL     1      25.732   0.049  54.271  1.00  0.00    +0.100 A 
ATOM      3  C   UNL     1      24.699   0.430  53.395  1.00  0.00    +0.007 A 
ATOM      4  C   UNL     1      25.031   1.319  52.355  1.00  0.00    +0.015 A 
ATOM      5  C   UNL     1      26.328   1.819  52.196  1.00  0.00    +0.054 A 
ATOM      6  C   UNL     1      27.337   1.438  53.073  1.00  0.00    +0.194 A 
ENDROOT
BRANCH   1   7
ATOM      7  N   UNL     1      28.074   0.123  55.058  1.00  0.00    +0.066 N 
ATOM      8  O   UNL     1      29.186  -0.184  54.607  1.00  0.00    -0.258 OA
ATOM      9  O   UNL     1      27.772   0.090  56.261  1.00  0.00    -0.258 OA
ENDBRANCH   1   7
BRANCH   6  10
ATOM     10  O   UNL     1      28.565   1.986  52.825  1.00  0.00    -0.502 OA
ATOM     11  H   UNL     1      28.892   1.696  51.947  1.00  0.00    +0.293 HD
ENDBRANCH   6  10
BRANCH   3  12
ATOM     12  C   UNL     1      23.318  -0.081  53.536  1.00  0.00    +0.070 A 
ATOM     13  C   UNL     1      22.926  -0.945  54.559  1.00  0.00    +0.029 A 
ATOM     14  N   UNL     1      22.437   0.353  52.599  1.00  0.00    -0.256 NA
ATOM     15  C   UNL     1      21.602  -1.381  54.615  1.00  0.00    +0.004 A 
ATOM     16  C   UNL     1      21.162  -0.087  52.675  1.00  0.00    +0.111 A 
ATOM     17  C   UNL     1      20.701  -0.947  53.654  1.00  0.00    +0.020 A 
ENDBRANCH   3  12
TORSDOF 3
ENDMDL
MODEL 3
REMARK VINA RESULT:    -6.849      3.368      5.684
REMARK INTER + INTRA:          -8.360
REMARK INTER:                  -7.869
REMARK INTRA:                  -0.491
REMARK UNBOUND:                -0.510
REMARK SMILES O=[N+]([O-])c1cc(-c2ccccn2)ccc1O
REMARK SMILES IDX 4 1 5 2 6 3 13 4 14 5 15 6 2 7 1 8 3 9 16 10 7 12 8 13 12 14
REMARK SMILES IDX 9 15 11 16 10 17
REMARK H PARENT 16 11
ROOT
ATOM      1  C   UNL     1      27.913  -0.264  53.473  1.00  0.00    +0.311 A 
ATOM      2  C   UNL     1      26.580  -0.701  53.609  1.00  0.00    +0.100 A 
ATOM      3  C   UNL     1      25.512   0.213  53.585  1.00  0.00    +0.007 A 
ATOM      4  C   UNL     1      25.830   1.573  53.408  1.00  0.00    +0.015 A 
ATOM      5  C   UNL     1      27.153   2.011  53.274  1.00  0.00    +0.054 A 
ATOM      6  C   UNL     1      28.199   1.095  53.306  1.00  0.00    +0.194 A 
ENDROOT
BRANCH   1   7
ATOM      7  N   UNL     1      28.987  -1.260  53.513  1.00  0.00    +0.066 N 
ATOM      8  O   UNL     1      30.108  -0.895  53.890  1.00  0.00    -0.258 OA
ATOM      9  O   UNL     1      28.708  -2.417  53.158  1.00  0.00    -0.258 OA
ENDBRANCH   1   7
BRANCH   6  10
ATOM     10  O   UNL     1      29.449   1.632  53.166  1.00  0.00    -0.502 OA
ATOM     11  H   UNL     1      30.124   0.921  53.189  1.00  0.00    +0.293 HD
ENDBRANCH   6  10
BRANCH   3  12
ATOM     12  C   UNL     1      24.104  -0.217  53.724  1.00  0.00    +0.070 A 
ATOM     13  C   UNL     1      23.107   0.128  52.810  1.00  0.00    +0.029 A 
ATOM     14  N   UNL     1      23.832  -0.986  54.809  1.00  0.00    -0.256 NA
ATOM     15  C   UNL     1      21.803  -0.318  53.020  1.00  0.00    +0.004 A 
ATOM     16  C   UNL     1      22.560  -1.402  54.991  1.00  0.00    +0.111 A 
ATOM     17  C   UNL     1      21.520  -1.096  54.133  1.00  0.00    +0.020 A 
ENDBRANCH   3  12
TORSDOF 3
ENDMDL
MODEL 4
REMARK VINA RESULT:    -6.766      3.096      4.874
REMARK INTER + INTRA:          -8.265
REMARK INTER:                  -7.734
REMARK INTRA:                  -0.530
REMARK UNBOUND:                -0.510
REMARK SMILES O=[N+]([O-])c1cc(-c2ccccn2)ccc1O
REMARK SMILES IDX 4 1 5 2 6 3 13 4 14 5 15 6 2 7 1 8 3 9 16 10 7 12 8 13 12 14
REMARK SMILES IDX 9 15 11 16 10 17
REMARK H PARENT 16 11
ROOT
ATOM      1  C   UNL     1      26.203   0.044  54.636  1.00  0.00    +0.311 A 
ATOM      2  C   UNL     1      26.294   0.945  53.556  1.00  0.00    +0.100 A 
ATOM      3  C   UNL     1      25.227   1.106  52.655  1.00  0.00    +0.007 A 
ATOM      4  C   UNL     1      24.068   0.340  52.885  1.00  0.00    +0.015 A 
ATOM      5  C   UNL     1      23.975  -0.556  53.956  1.00  0.00    +0.054 A 
ATOM      6  C   UNL     1      25.041  -0.709  54.835  1.00  0.00    +0.194 A 
ENDROOT
BRANCH   1   7
ATOM      7  N   UNL     1      27.350  -0.087  55.540  1.00  0.00    +0.066 N 
ATOM      8  O   UNL     1      28.471  -0.245  55.040  1.00  0.00    -0.258 OA
ATOM      9  O   UNL     1      27.125  -0.036  56.759  1.00  0.00    -0.258 OA
ENDBRANCH   1   7
BRANCH   6  10
ATOM     10  O   UNL     1      24.843  -1.610  55.844  1.00  0.00    -0.502 OA
ATOM     11  H   UNL     1      23.961  -1.472  56.249  1.00  0.00    +0.293 HD
ENDBRANCH   6  10
BRANCH   3  12
ATOM     12  C   UNL     1      25.293   2.045  51.514  1.00  0.00    +0.070 A 
ATOM     13  C   UNL     1      26.494   2.458  50.936  1.00  0.00    +0.029 A 
ATOM     14  N   UNL     1      24.095   2.484  51.049  1.00  0.00    -0.256 NA
ATOM     15  C   UNL     1      26.465   3.350  49.864  1.00  0.00    +0.004 A 
ATOM     16  C   UNL     1      24.096   3.350  50.012  1.00  0.00    +0.111 A 
ATOM     17  C   UNL     1      25.243   3.808  49.392  1.00  0.00    +0.020 A 
ENDBRANCH   3  12
TORSDOF 3
ENDMDL
MODEL 5
REMARK VINA RESULT:    -6.672      3.306      5.581
REMARK INTER + INTRA:          -8.157
REMARK INTER:                  -7.626
REMARK INTRA:                  -0.532
REMARK UNBOUND:                -0.510
REMARK SMILES O=[N+]([O-])c1cc(-c2ccccn2)ccc1O
REMARK SMILES IDX 4 1 5 2 6 3 13 4 14 5 15 6 2 7 1 8 3 9 16 10 7 12 8 13 12 14
REMARK SMILES IDX 9 15 11 16 10 17
REMARK H PARENT 16 11
ROOT
ATOM      1  C   UNL     1      24.110  -0.707  54.279  1.00  0.00    +0.311 A 
ATOM      2  C   UNL     1      23.900  -0.011  53.072  1.00  0.00    +0.100 A 
ATOM      3  C   UNL     1      22.606   0.150  52.544  1.00  0.00    +0.007 A 
ATOM      4  C   UNL     1      21.538  -0.402  53.277  1.00  0.00    +0.015 A 
ATOM      5  C   UNL     1      21.744  -1.094  54.476  1.00  0.00    +0.054 A 
ATOM      6  C   UNL     1      23.030  -1.250  54.981  1.00  0.00    +0.194 A 
ENDROOT
BRANCH   1   7
ATOM      7  N   UNL     1      25.481  -0.849  54.778  1.00  0.00    +0.066 N 
ATOM      8  O   UNL     1      25.664  -0.804  56.002  1.00  0.00    -0.258 OA
ATOM      9  O   UNL     1      26.383  -1.000  53.939  1.00  0.00    -0.258 OA
ENDBRANCH   1   7
BRANCH   6  10
ATOM     10  O   UNL     1      23.115  -1.943  56.157  1.00  0.00    -0.502 OA
ATOM     11  H   UNL     1      22.278  -1.857  56.659  1.00  0.00    +0.293 HD
ENDBRANCH   6  10
BRANCH   3  12
ATOM     12  C   UNL     1      22.355   0.876  51.281  1.00  0.00    +0.070 A 
ATOM     13  C   UNL     1      21.301   0.566  50.420  1.00  0.00    +0.029 A 
ATOM     14  N   UNL     1      23.221   1.884  51.004  1.00  0.00    -0.256 NA
ATOM     15  C   UNL     1      21.140   1.300  49.245  1.00  0.00    +0.004 A 
ATOM     16  C   UNL     1      23.044   2.577  49.858  1.00  0.00    +0.111 A 
ATOM     17  C   UNL     1      22.028   2.325  48.955  1.00  0.00    +0.020 A 
ENDBRANCH   3  12
TORSDOF 3
ENDMDL
MODEL 6
REMARK VINA RESULT:    -6.510      3.851      6.096
REMARK INTER + INTRA:          -7.972
REMARK INTER:                  -7.497
REMARK INTRA:                  -0.475
REMARK UNBOUND:                -0.510
REMARK SMILES O=[N+]([O-])c1cc(-c2ccccn2)ccc1O
REMARK SMILES IDX 4 1 5 2 6 3 13 4 14 5 15 6 2 7 1 8 3 9 16 10 7 12 8 13 12 14
REMARK SMILES IDX 9 15 11 16 10 17
REMARK H PARENT 16 11
ROOT
ATOM      1  C   UNL     1      28.099   0.908  53.599  1.00  0.00    +0.311 A 
ATOM      2  C   UNL     1      26.707   1.063  53.448  1.00  0.00    +0.100 A 
ATOM      3  C   UNL     1      25.887  -0.032  53.121  1.00  0.00    +0.007 A 
ATOM      4  C   UNL     1      26.514  -1.282  52.963  1.00  0.00    +0.015 A 
ATOM      5  C   UNL     1      27.896  -1.440  53.110  1.00  0.00    +0.054 A 
ATOM      6  C   UNL     1      28.694  -0.346  53.428  1.00  0.00    +0.194 A 
ENDROOT
BRANCH   1   7
ATOM      7  N   UNL     1      28.905   2.085  53.934  1.00  0.00    +0.066 N 
ATOM      8  O   UNL     1      29.402   2.147  55.067  1.00  0.00    -0.258 OA
ATOM      9  O   UNL     1      29.036   2.957  53.061  1.00  0.00    -0.258 OA
ENDBRANCH   1   7
BRANCH   6  10
ATOM     10  O   UNL     1      30.030  -0.613  53.548  1.00  0.00    -0.502 OA
ATOM     11  H   UNL     1      30.535   0.224  53.623  1.00  0.00    +0.293 HD
ENDBRANCH   6  10
BRANCH   3  12
ATOM     12  C   UNL     1      24.423   0.101  52.958  1.00  0.00    +0.070 A 
ATOM     13  C   UNL     1      23.503  -0.659  53.683  1.00  0.00    +0.029 A 
ATOM     14  N   UNL     1      24.017   1.025  52.051  1.00  0.00    -0.256 NA
ATOM     15  C   UNL     1      22.139  -0.472  53.463  1.00  0.00    +0.004 A 
ATOM     16  C   UNL     1      22.690   1.184  51.856  1.00  0.00    +0.111 A 
ATOM     17  C   UNL     1      21.721   0.466  52.530  1.00  0.00    +0.020 A 
ENDBRANCH   3  12
TORSDOF 3
ENDMDL
MODEL 7
REMARK VINA RESULT:    -6.461      3.468      6.144
REMARK INTER + INTRA:          -7.915
REMARK INTER:                  -7.368
REMARK INTRA:                  -0.546
REMARK UNBOUND:                -0.510
REMARK SMILES O=[N+]([O-])c1cc(-c2ccccn2)ccc1O
REMARK SMILES IDX 4 1 5 2 6 3 13 4 14 5 15 6 2 7 1 8 3 9 16 10 7 12 8 13 12 14
REMARK SMILES IDX 9 15 11 16 10 17
REMARK H PARENT 16 11
ROOT
ATOM      1  C   UNL     1      26.457   1.271  53.506  1.00  0.00    +0.311 A 
ATOM      2  C   UNL     1      25.312   1.433  52.701  1.00  0.00    +0.100 A 
ATOM      3  C   UNL     1      24.199   0.585  52.845  1.00  0.00    +0.007 A 
ATOM      4  C   UNL     1      24.276  -0.419  53.830  1.00  0.00    +0.015 A 
ATOM      5  C   UNL     1      25.413  -0.583  54.630  1.00  0.00    +0.054 A 
ATOM      6  C   UNL     1      26.507   0.260  54.472  1.00  0.00    +0.194 A 
ENDROOT
BRANCH   1   7
ATOM      7  N   UNL     1      27.589   2.180  53.308  1.00  0.00    +0.066 N 
ATOM      8  O   UNL     1      28.185   2.596  54.311  1.00  0.00    -0.258 OA
ATOM      9  O   UNL     1      27.881   2.485  52.141  1.00  0.00    -0.258 OA
ENDBRANCH   1   7
BRANCH   6  10
ATOM     10  O   UNL     1      27.562   0.010  55.305  1.00  0.00    -0.502 OA
ATOM     11  H   UNL     1      28.046  -0.788  55.005  1.00  0.00    +0.293 HD
ENDBRANCH   6  10
BRANCH   3  12
ATOM     12  C   UNL     1      22.984   0.732  52.016  1.00  0.00    +0.070 A 
ATOM     13  C   UNL     1      21.761   0.146  52.344  1.00  0.00    +0.029 A 
ATOM     14  N   UNL     1      23.128   1.489  50.898  1.00  0.00    -0.256 NA
ATOM     15  C   UNL     1      20.665   0.333  51.502  1.00  0.00    +0.004 A 
ATOM     16  C   UNL     1      22.051   1.652  50.099  1.00  0.00    +0.111 A 
ATOM     17  C   UNL     1      20.811   1.098  50.355  1.00  0.00    +0.020 A 
ENDBRANCH   3  12
TORSDOF 3
ENDMDL
MODEL 8
REMARK VINA RESULT:    -6.450      1.849      3.042
REMARK INTER + INTRA:          -7.903
REMARK INTER:                  -7.391
REMARK INTRA:                  -0.512
REMARK UNBOUND:                -0.510
REMARK SMILES O=[N+]([O-])c1cc(-c2ccccn2)ccc1O
REMARK SMILES IDX 4 1 5 2 6 3 13 4 14 5 15 6 2 7 1 8 3 9 16 10 7 12 8 13 12 14
REMARK SMILES IDX 9 15 11 16 10 17
REMARK H PARENT 16 11
ROOT
ATOM      1  C   UNL     1      21.926   0.044  53.087  1.00  0.00    +0.311 A 
ATOM      2  C   UNL     1      23.332   0.119  53.024  1.00  0.00    +0.100 A 
ATOM      3  C   UNL     1      24.135  -0.525  53.981  1.00  0.00    +0.007 A 
ATOM      4  C   UNL     1      23.477  -1.253  54.991  1.00  0.00    +0.015 A 
ATOM      5  C   UNL     1      22.081  -1.328  55.057  1.00  0.00    +0.054 A 
ATOM      6  C   UNL     1      21.300  -0.681  54.106  1.00  0.00    +0.194 A 
ENDROOT
BRANCH   1   7
ATOM      7  N   UNL     1      21.139   0.740  52.065  1.00  0.00    +0.066 N 
ATOM      8  O   UNL     1      20.324   1.595  52.439  1.00  0.00    -0.258 OA
ATOM      9  O   UNL     1      21.333   0.425  50.880  1.00  0.00    -0.258 OA
ENDBRANCH   1   7
BRANCH   6  10
ATOM     10  O   UNL     1      19.949  -0.822  54.266  1.00  0.00    -0.502 OA
ATOM     11  H   UNL     1      19.486  -0.026  53.930  1.00  0.00    +0.293 HD
ENDBRANCH   6  10
BRANCH   3  12
ATOM     12  C   UNL     1      25.612  -0.464  53.940  1.00  0.00    +0.070 A 
ATOM     13  C   UNL     1      26.359  -0.822  52.817  1.00  0.00    +0.029 A 
ATOM     14  N   UNL     1      26.211  -0.027  55.077  1.00  0.00    -0.256 NA
ATOM     15  C   UNL     1      27.750  -0.739  52.866  1.00  0.00    +0.004 A 
ATOM     16  C   UNL     1      27.560   0.042  55.098  1.00  0.00    +0.111 A 
ATOM     17  C   UNL     1      28.365  -0.300  54.029  1.00  0.00    +0.020 A 
ENDBRANCH   3  12
TORSDOF 3
ENDMDL
MODEL 9
REMARK VINA RESULT:    -6.362      2.358      4.204
REMARK INTER + INTRA:          -7.802
REMARK INTER:                  -7.290
REMARK INTRA:                  -0.513
REMARK UNBOUND:                -0.510
REMARK SMILES O=[N+]([O-])c1cc(-c2ccccn2)ccc1O
REMARK SMILES IDX 4 1 5 2 6 3 13 4 14 5 15 6 2 7 1 8 3 9 16 10 7 12 8 13 12 14
REMARK SMILES IDX 9 15 11 16 10 17
REMARK H PARENT 16 11
ROOT
ATOM      1  C   UNL     1      23.890  -0.502  54.035  1.00  0.00    +0.311 A 
ATOM      2  C   UNL     1      23.968   0.405  52.959  1.00  0.00    +0.100 A 
ATOM      3  C   UNL     1      25.176   1.052  52.643  1.00  0.00    +0.007 A 
ATOM      4  C   UNL     1      26.298   0.746  53.437  1.00  0.00    +0.015 A 
ATOM      5  C   UNL     1      26.223  -0.153  54.507  1.00  0.00    +0.054 A 
ATOM      6  C   UNL     1      25.020  -0.780  54.810  1.00  0.00    +0.194 A 
ENDROOT
BRANCH   1   7
ATOM      7  N   UNL     1      22.603  -1.142  54.321  1.00  0.00    +0.066 N 
ATOM      8  O   UNL     1      22.388  -1.526  55.479  1.00  0.00    -0.258 OA
ATOM      9  O   UNL     1      21.804  -1.267  53.380  1.00  0.00    -0.258 OA
ENDBRANCH   1   7
BRANCH   6  10
ATOM     10  O   UNL     1      25.061  -1.639  55.874  1.00  0.00    -0.502 OA
ATOM     11  H   UNL     1      24.567  -1.260  56.631  1.00  0.00    +0.293 HD
ENDBRANCH   6  10
BRANCH   3  12
ATOM     12  C   UNL     1      25.288   2.008  51.520  1.00  0.00    +0.070 A 
ATOM     13  C   UNL     1      26.508   2.381  50.956  1.00  0.00    +0.029 A 
ATOM     14  N   UNL     1      24.113   2.505  51.057  1.00  0.00    -0.256 NA
ATOM     15  C   UNL     1      26.523   3.293  49.900  1.00  0.00    +0.004 A 
ATOM     16  C   UNL     1      24.156   3.389  50.036  1.00  0.00    +0.111 A 
ATOM     17  C   UNL     1      25.325   3.810  49.431  1.00  0.00    +0.020 A 
ENDBRANCH   3  12
TORSDOF 3
ENDMDL
