REMARK SMILES Cc1cccc(C/N=N/Nc2ccc3ncnc(-c4ccccc4)c3c2)c1
REMARK SMILES IDX 8 1 9 2 7 3 6 4 2 5 3 6 27 7 4 8 5 9 1 10 10 11 11 13 12 14
REMARK SMILES IDX 26 15 13 16 25 17 14 18 18 19 15 20 17 21 16 22 19 23 20 24
REMARK SMILES IDX 24 25 21 26 23 27 22 28
REMARK H PARENT 10 12
ROOT
ATOM      1  N   UNL     1       1.979   1.350   1.015  1.00  0.00    -0.166 NA
ATOM      2  N   UNL     1       1.552   0.286   0.531  1.00  0.00    -0.074 NA
ENDROOT
BRANCH   1   3
ATOM      3  C   UNL     1       3.411   1.270   1.359  1.00  0.00    +0.204 C 
BRANCH   3   4
ATOM      4  C   UNL     1       4.343   1.527   0.196  1.00  0.00    -0.024 A 
ATOM      5  C   UNL     1       6.393   0.991  -1.019  1.00  0.00    -0.051 A 
ATOM      6  C   UNL     1       6.126   2.033  -1.913  1.00  0.00    +0.003 A 
ATOM      7  C   UNL     1       5.493   0.739   0.027  1.00  0.00    +0.009 A 
ATOM      8  C   UNL     1       4.991   2.827  -1.750  1.00  0.00    +0.001 A 
ATOM      9  C   UNL     1       4.108   2.580  -0.698  1.00  0.00    +0.006 A 
ATOM     10  C   UNL     1       7.598   0.116  -1.205  1.00  0.00    +0.044 C 
ENDBRANCH   3   4
ENDBRANCH   1   3
BRANCH   2  11
ATOM     11  N   UNL     1       0.242   0.491   0.298  1.00  0.00    -0.260 N 
ATOM     12  H   UNL     1      -0.156   1.274   0.805  1.00  0.00    +0.192 HD
BRANCH  11  13
ATOM     13  C   UNL     1      -0.598  -0.625   0.143  1.00  0.00    +0.059 A 
ATOM     14  C   UNL     1      -0.117  -1.880  -0.225  1.00  0.00    +0.030 A 
ATOM     15  C   UNL     1      -1.984  -0.469   0.252  1.00  0.00    +0.040 A 
ATOM     16  C   UNL     1      -0.993  -2.954  -0.418  1.00  0.00    +0.031 A 
ATOM     17  C   UNL     1      -2.879  -1.556   0.050  1.00  0.00    +0.029 A 
ATOM     18  C   UNL     1      -2.365  -2.817  -0.277  1.00  0.00    +0.074 A 
ATOM     19  C   UNL     1      -4.280  -1.502   0.162  1.00  0.00    +0.081 A 
ATOM     20  N   UNL     1      -3.137  -3.892  -0.464  1.00  0.00    -0.236 NA
ATOM     21  N   UNL     1      -5.073  -2.584  -0.002  1.00  0.00    -0.236 NA
ATOM     22  C   UNL     1      -4.455  -3.725  -0.313  1.00  0.00    +0.223 A 
BRANCH  19  23
ATOM     23  C   UNL     1      -5.024  -0.272   0.482  1.00  0.00    +0.001 A 
ATOM     24  C   UNL     1      -5.055   0.817  -0.406  1.00  0.00    +0.010 A 
ATOM     25  C   UNL     1      -5.745  -0.170   1.684  1.00  0.00    +0.010 A 
ATOM     26  C   UNL     1      -5.763   1.980  -0.090  1.00  0.00    +0.001 A 
ATOM     27  C   UNL     1      -6.453   0.992   2.001  1.00  0.00    +0.001 A 
ATOM     28  C   UNL     1      -6.459   2.067   1.114  1.00  0.00    +0.000 A 
ENDBRANCH  19  23
ENDBRANCH  11  13
ENDBRANCH   2  11
TORSDOF 5
