REMARK SMILES N#CC(C#N)=C(N)C(C#N)=C1C(=O)Nc2ncnc(-c3cccc(Cl)c3)c21
REMARK SMILES IDX 8 1 9 2 10 3 11 4 12 5 13 6 14 7 15 8 16 9 17 10 18 11 19 12
REMARK SMILES IDX 27 13 6 15 1 16 2 17 3 18 4 19 5 20 7 21 20 24 21 25 26 26
REMARK SMILES IDX 22 27 24 28 23 29 25 30
REMARK H PARENT 14 14 7 22 7 23
ROOT
ATOM      1  C   UNL     1       1.812   1.105  -0.509  1.00  0.00    +0.091 C 
ATOM      2  C   UNL     1       3.046   1.670  -0.991  1.00  0.00    +0.102 C 
ATOM      3  N   UNL     1       4.072   2.008  -1.416  1.00  0.00    -0.192 NA
ATOM      4  C   UNL     1       0.814   1.880  -0.025  1.00  0.00    +0.073 C 
ATOM      5  C   UNL     1       1.027   3.373   0.138  1.00  0.00    +0.259 C 
ATOM      6  O   UNL     1       1.924   4.057  -0.308  1.00  0.00    -0.269 OA
ATOM      7  N   UNL     1      -0.015   3.806   0.913  1.00  0.00    -0.306 N 
ATOM      8  C   UNL     1      -0.914   2.790   1.177  1.00  0.00    +0.145 A 
ATOM      9  N   UNL     1      -2.026   3.015   1.877  1.00  0.00    -0.218 NA
ATOM     10  C   UNL     1      -2.811   1.945   1.978  1.00  0.00    +0.224 A 
ATOM     11  N   UNL     1      -2.579   0.752   1.404  1.00  0.00    -0.236 NA
ATOM     12  C   UNL     1      -1.443   0.595   0.669  1.00  0.00    +0.084 A 
ATOM     13  C   UNL     1      -0.511   1.602   0.575  1.00  0.00    +0.058 A 
ATOM     14  H   UNL     1      -0.151   4.759   1.211  1.00  0.00    +0.171 HD
ENDROOT
BRANCH   1  15
ATOM     15  C   UNL     1       1.824  -0.373  -0.557  1.00  0.00    +0.079 C 
ATOM     16  N   UNL     1       2.166  -3.684   0.420  1.00  0.00    -0.192 NA
ATOM     17  C   UNL     1       2.069  -2.531   0.512  1.00  0.00    +0.113 C 
ATOM     18  C   UNL     1       1.975  -1.112   0.576  1.00  0.00    +0.153 C 
ATOM     19  C   UNL     1       2.066  -0.512   1.864  1.00  0.00    +0.113 C 
ATOM     20  N   UNL     1       2.104   0.024   2.892  1.00  0.00    -0.192 NA
BRANCH  15  21
ATOM     21  N   UNL     1       1.743  -0.910  -1.842  1.00  0.00    -0.396 N 
ATOM     22  H   UNL     1       2.143  -0.339  -2.588  1.00  0.00    +0.156 HD
ATOM     23  H   UNL     1       2.009  -1.891  -1.946  1.00  0.00    +0.156 HD
ENDBRANCH  15  21
ENDBRANCH   1  15
BRANCH  12  24
ATOM     24  C   UNL     1      -1.418  -0.691  -0.032  1.00  0.00    +0.002 A 
ATOM     25  C   UNL     1      -1.424  -0.758  -1.435  1.00  0.00    +0.010 A 
ATOM     26  C   UNL     1      -1.508  -1.894   0.690  1.00  0.00    +0.030 A 
ATOM     27  C   UNL     1      -1.477  -1.990  -2.095  1.00  0.00    +0.002 A 
ATOM     28  C   UNL     1      -1.563  -3.120   0.028  1.00  0.00    +0.041 A 
ATOM     29  C   UNL     1      -1.539  -3.173  -1.362  1.00  0.00    +0.020 A 
ATOM     30 Cl   UNL     1      -1.669  -4.575   0.938  1.00  0.00    -0.084 Cl
ENDBRANCH  12  24
TORSDOF 3
