MODEL 1
REMARK VINA RESULT:    -6.422      0.000      0.000
REMARK INTER + INTRA:          -9.493
REMARK INTER:                  -8.862
REMARK INTRA:                  -0.632
REMARK UNBOUND:                -0.632
REMARK SMILES Cc1cccc(Cl)c1N1CCC[C@@H]1OC[C@H](O)C[N+](C)(C)C
REMARK SMILES IDX 15 1 14 2 13 3 9 4 10 5 11 6 12 7 8 8 2 9 3 10 4 11 6 12
REMARK SMILES IDX 5 13 1 14 7 15 16 16 17 17 18 19 19 20 20 21 21 22 22 23
REMARK H PARENT 17 18
ROOT
ATOM      1  C   UNL     1      25.802   2.372  53.198  1.00  0.00    +0.200 C 
ENDROOT
BRANCH   1   2
ATOM      2  O   UNL     1      25.179   2.662  51.946  1.00  0.00    -0.355 OA
BRANCH   2   3
ATOM      3  C   UNL     1      23.752   2.751  52.045  1.00  0.00    +0.214 C 
ATOM      4  N   UNL     1      23.179   1.434  51.789  1.00  0.00    -0.345 N 
ATOM      5  C   UNL     1      22.561   1.386  50.457  1.00  0.00    +0.119 C 
ATOM      6  C   UNL     1      23.132   2.604  49.741  1.00  0.00    +0.026 C 
ATOM      7  C   UNL     1      23.285   3.615  50.869  1.00  0.00    +0.057 C 
BRANCH   4   8
ATOM      8  C   UNL     1      22.488   0.730  52.781  1.00  0.00    +0.061 A 
ATOM      9  C   UNL     1      21.169   1.034  53.199  1.00  0.00    -0.026 A 
ATOM     10  C   UNL     1      20.576   0.282  54.235  1.00  0.00    +0.005 A 
ATOM     11  C   UNL     1      21.241  -0.778  54.840  1.00  0.00    +0.002 A 
ATOM     12  C   UNL     1      23.128  -0.381  53.396  1.00  0.00    +0.064 A 
ATOM     13  C   UNL     1      22.517  -1.119  54.412  1.00  0.00    +0.023 A 
ATOM     14  C   UNL     1      20.332   2.136  52.603  1.00  0.00    +0.046 C 
ATOM     15 Cl   UNL     1      24.740  -0.860  52.945  1.00  0.00    -0.082 Cl
ENDBRANCH   4   8
ENDBRANCH   2   3
ENDBRANCH   1   2
BRANCH   1  16
ATOM     16  C   UNL     1      27.309   2.292  52.930  1.00  0.00    +0.195 C 
BRANCH  16  17
ATOM     17  O   UNL     1      27.586   2.923  51.672  1.00  0.00    -0.385 OA
ATOM     18  H   UNL     1      28.565   2.984  51.625  1.00  0.00    +0.211 HD
ENDBRANCH  16  17
BRANCH  16  19
ATOM     19  C   UNL     1      27.769   0.823  52.894  1.00  0.00    +0.297 C 
BRANCH  19  20
ATOM     20  N   UNL     1      28.641   0.381  54.106  1.00  0.00    -0.329 N 
ATOM     21  C   UNL     1      27.774   0.018  55.312  1.00  0.00    +0.334 C 
ATOM     22  C   UNL     1      29.526  -0.799  53.747  1.00  0.00    +0.334 C 
ATOM     23  C   UNL     1      29.528   1.563  54.497  1.00  0.00    +0.334 C 
ENDBRANCH  19  20
ENDBRANCH  16  19
ENDBRANCH   1  16
TORSDOF 7
ENDMDL
MODEL 2
REMARK VINA RESULT:    -6.175      2.046      4.208
REMARK INTER + INTRA:          -9.153
REMARK INTER:                  -8.248
REMARK INTRA:                  -0.904
REMARK UNBOUND:                -0.632
REMARK SMILES Cc1cccc(Cl)c1N1CCC[C@@H]1OC[C@H](O)C[N+](C)(C)C
REMARK SMILES IDX 15 1 14 2 13 3 9 4 10 5 11 6 12 7 8 8 2 9 3 10 4 11 6 12
REMARK SMILES IDX 5 13 1 14 7 15 16 16 17 17 18 19 19 20 20 21 21 22 22 23
REMARK H PARENT 17 18
ROOT
ATOM      1  C   UNL     1      24.669  -0.867  54.266  1.00  0.00    +0.200 C 
ENDROOT
BRANCH   1   2
ATOM      2  O   UNL     1      23.934   0.305  53.913  1.00  0.00    -0.355 OA
BRANCH   2   3
ATOM      3  C   UNL     1      23.094   0.108  52.770  1.00  0.00    +0.214 C 
ATOM      4  N   UNL     1      22.434   1.368  52.448  1.00  0.00    -0.345 N 
ATOM      5  C   UNL     1      21.019   1.330  52.842  1.00  0.00    +0.119 C 
ATOM      6  C   UNL     1      20.932   0.141  53.791  1.00  0.00    +0.026 C 
ATOM      7  C   UNL     1      21.961  -0.823  53.215  1.00  0.00    +0.057 C 
BRANCH   4   8
ATOM      8  C   UNL     1      22.689   2.045  51.250  1.00  0.00    +0.061 A 
ATOM      9  C   UNL     1      22.167   1.657  49.991  1.00  0.00    -0.026 A 
ATOM     10  C   UNL     1      22.516   2.389  48.836  1.00  0.00    +0.005 A 
ATOM     11  C   UNL     1      23.339   3.508  48.903  1.00  0.00    +0.002 A 
ATOM     12  C   UNL     1      23.500   3.213  51.289  1.00  0.00    +0.064 A 
ATOM     13  C   UNL     1      23.823   3.929  50.134  1.00  0.00    +0.023 A 
ATOM     14  C   UNL     1      21.242   0.485  49.790  1.00  0.00    +0.046 C 
ATOM     15 Cl   UNL     1      24.176   3.795  52.784  1.00  0.00    -0.082 Cl
ENDBRANCH   4   8
ENDBRANCH   2   3
ENDBRANCH   1   2
BRANCH   1  16
ATOM     16  C   UNL     1      26.037  -0.394  54.770  1.00  0.00    +0.195 C 
BRANCH  16  17
ATOM     17  O   UNL     1      26.043  -0.450  56.204  1.00  0.00    -0.385 OA
ATOM     18  H   UNL     1      26.218   0.471  56.496  1.00  0.00    +0.211 HD
ENDBRANCH  16  17
BRANCH  16  19
ATOM     19  C   UNL     1      26.311   1.046  54.299  1.00  0.00    +0.297 C 
BRANCH  19  20
ATOM     20  N   UNL     1      27.379   1.174  53.173  1.00  0.00    -0.329 N 
ATOM     21  C   UNL     1      26.723   1.361  51.804  1.00  0.00    +0.334 C 
ATOM     22  C   UNL     1      28.327   2.329  53.440  1.00  0.00    +0.334 C 
ATOM     23  C   UNL     1      28.181  -0.126  53.142  1.00  0.00    +0.334 C 
ENDBRANCH  19  20
ENDBRANCH  16  19
ENDBRANCH   1  16
TORSDOF 7
ENDMDL
MODEL 3
REMARK VINA RESULT:    -6.061      3.401      4.438
REMARK INTER + INTRA:          -8.996
REMARK INTER:                  -8.245
REMARK INTRA:                  -0.751
REMARK UNBOUND:                -0.632
REMARK SMILES Cc1cccc(Cl)c1N1CCC[C@@H]1OC[C@H](O)C[N+](C)(C)C
REMARK SMILES IDX 15 1 14 2 13 3 9 4 10 5 11 6 12 7 8 8 2 9 3 10 4 11 6 12
REMARK SMILES IDX 5 13 1 14 7 15 16 16 17 17 18 19 19 20 20 21 21 22 22 23
REMARK H PARENT 17 18
ROOT
ATOM      1  C   UNL     1      22.093   4.468  52.271  1.00  0.00    +0.200 C 
ENDROOT
BRANCH   1   2
ATOM      2  O   UNL     1      22.008   3.390  51.338  1.00  0.00    -0.355 OA
BRANCH   2   3
ATOM      3  C   UNL     1      21.091   2.370  51.753  1.00  0.00    +0.214 C 
ATOM      4  N   UNL     1      21.740   1.071  51.621  1.00  0.00    -0.345 N 
ATOM      5  C   UNL     1      21.213   0.342  50.460  1.00  0.00    +0.119 C 
ATOM      6  C   UNL     1      20.500   1.412  49.644  1.00  0.00    +0.026 C 
ATOM      7  C   UNL     1      19.962   2.349  50.717  1.00  0.00    +0.057 C 
BRANCH   4   8
ATOM      8  C   UNL     1      22.017   0.273  52.737  1.00  0.00    +0.061 A 
ATOM      9  C   UNL     1      21.032  -0.412  53.489  1.00  0.00    -0.026 A 
ATOM     10  C   UNL     1      21.416  -1.163  54.620  1.00  0.00    +0.005 A 
ATOM     11  C   UNL     1      22.748  -1.277  55.003  1.00  0.00    +0.002 A 
ATOM     12  C   UNL     1      23.373   0.110  53.134  1.00  0.00    +0.064 A 
ATOM     13  C   UNL     1      23.732  -0.648  54.252  1.00  0.00    +0.023 A 
ATOM     14  C   UNL     1      19.562  -0.395  53.160  1.00  0.00    +0.046 C 
ATOM     15 Cl   UNL     1      24.670   0.886  52.270  1.00  0.00    -0.082 Cl
ENDBRANCH   4   8
ENDBRANCH   2   3
ENDBRANCH   1   2
BRANCH   1  16
ATOM     16  C   UNL     1      23.570   4.876  52.336  1.00  0.00    +0.195 C 
BRANCH  16  17
ATOM     17  O   UNL     1      23.846   5.389  53.647  1.00  0.00    -0.385 OA
ATOM     18  H   UNL     1      24.128   4.609  54.174  1.00  0.00    +0.211 HD
ENDBRANCH  16  17
BRANCH  16  19
ATOM     19  C   UNL     1      23.875   5.949  51.276  1.00  0.00    +0.297 C 
BRANCH  19  20
ATOM     20  N   UNL     1      24.687   5.444  50.048  1.00  0.00    -0.329 N 
ATOM     21  C   UNL     1      25.396   4.124  50.355  1.00  0.00    +0.334 C 
ATOM     22  C   UNL     1      23.795   5.266  48.832  1.00  0.00    +0.334 C 
ATOM     23  C   UNL     1      25.752   6.493  49.730  1.00  0.00    +0.334 C 
ENDBRANCH  19  20
ENDBRANCH  16  19
ENDBRANCH   1  16
TORSDOF 7
ENDMDL
MODEL 4
REMARK VINA RESULT:    -5.996      2.788      5.470
REMARK INTER + INTRA:          -8.906
REMARK INTER:                  -7.950
REMARK INTRA:                  -0.955
REMARK UNBOUND:                -0.632
REMARK SMILES Cc1cccc(Cl)c1N1CCC[C@@H]1OC[C@H](O)C[N+](C)(C)C
REMARK SMILES IDX 15 1 14 2 13 3 9 4 10 5 11 6 12 7 8 8 2 9 3 10 4 11 6 12
REMARK SMILES IDX 5 13 1 14 7 15 16 16 17 17 18 19 19 20 20 21 21 22 22 23
REMARK H PARENT 17 18
ROOT
ATOM      1  C   UNL     1      23.325   4.810  52.501  1.00  0.00    +0.200 C 
ENDROOT
BRANCH   1   2
ATOM      2  O   UNL     1      22.264   4.107  51.851  1.00  0.00    -0.355 OA
BRANCH   2   3
ATOM      3  C   UNL     1      22.062   2.794  52.386  1.00  0.00    +0.214 C 
ATOM      4  N   UNL     1      22.824   1.838  51.591  1.00  0.00    -0.345 N 
ATOM      5  C   UNL     1      21.933   1.055  50.724  1.00  0.00    +0.119 C 
ATOM      6  C   UNL     1      20.631   1.846  50.721  1.00  0.00    +0.026 C 
ATOM      7  C   UNL     1      20.594   2.436  52.124  1.00  0.00    +0.057 C 
BRANCH   4   8
ATOM      8  C   UNL     1      23.892   1.117  52.136  1.00  0.00    +0.061 A 
ATOM      9  C   UNL     1      23.746   0.073  53.082  1.00  0.00    -0.026 A 
ATOM     10  C   UNL     1      24.894  -0.568  53.597  1.00  0.00    +0.005 A 
ATOM     11  C   UNL     1      26.173  -0.221  53.175  1.00  0.00    +0.002 A 
ATOM     12  C   UNL     1      25.211   1.424  51.701  1.00  0.00    +0.064 A 
ATOM     13  C   UNL     1      26.332   0.769  52.216  1.00  0.00    +0.023 A 
ATOM     14  C   UNL     1      22.417  -0.417  53.594  1.00  0.00    +0.046 C 
ATOM     15 Cl   UNL     1      25.508   2.673  50.526  1.00  0.00    -0.082 Cl
ENDBRANCH   4   8
ENDBRANCH   2   3
ENDBRANCH   1   2
BRANCH   1  16
ATOM     16  C   UNL     1      23.936   5.748  51.453  1.00  0.00    +0.195 C 
BRANCH  16  17
ATOM     17  O   UNL     1      24.339   6.961  52.104  1.00  0.00    -0.385 OA
ATOM     18  H   UNL     1      24.754   7.505  51.399  1.00  0.00    +0.211 HD
ENDBRANCH  16  17
BRANCH  16  19
ATOM     19  C   UNL     1      22.909   6.059  50.350  1.00  0.00    +0.297 C 
BRANCH  19  20
ATOM     20  N   UNL     1      23.387   5.742  48.902  1.00  0.00    -0.329 N 
ATOM     21  C   UNL     1      24.905   5.875  48.777  1.00  0.00    +0.334 C 
ATOM     22  C   UNL     1      22.965   4.348  48.475  1.00  0.00    +0.334 C 
ATOM     23  C   UNL     1      22.742   6.762  47.966  1.00  0.00    +0.334 C 
ENDBRANCH  19  20
ENDBRANCH  16  19
ENDBRANCH   1  16
TORSDOF 7
ENDMDL
MODEL 5
REMARK VINA RESULT:    -5.846      3.281      5.216
REMARK INTER + INTRA:          -8.700
REMARK INTER:                  -8.144
REMARK INTRA:                  -0.556
REMARK UNBOUND:                -0.632
REMARK SMILES Cc1cccc(Cl)c1N1CCC[C@@H]1OC[C@H](O)C[N+](C)(C)C
REMARK SMILES IDX 15 1 14 2 13 3 9 4 10 5 11 6 12 7 8 8 2 9 3 10 4 11 6 12
REMARK SMILES IDX 5 13 1 14 7 15 16 16 17 17 18 19 19 20 20 21 21 22 22 23
REMARK H PARENT 17 18
ROOT
ATOM      1  C   UNL     1      22.857   4.680  52.091  1.00  0.00    +0.200 C 
ENDROOT
BRANCH   1   2
ATOM      2  O   UNL     1      22.861   3.484  51.310  1.00  0.00    -0.355 OA
BRANCH   2   3
ATOM      3  C   UNL     1      21.688   2.688  51.512  1.00  0.00    +0.214 C 
ATOM      4  N   UNL     1      22.048   1.279  51.393  1.00  0.00    -0.345 N 
ATOM      5  C   UNL     1      21.569   0.726  50.119  1.00  0.00    +0.119 C 
ATOM      6  C   UNL     1      21.252   1.956  49.278  1.00  0.00    +0.026 C 
ATOM      7  C   UNL     1      20.765   2.956  50.317  1.00  0.00    +0.057 C 
BRANCH   4   8
ATOM      8  C   UNL     1      21.957   0.405  52.481  1.00  0.00    +0.061 A 
ATOM      9  C   UNL     1      23.066  -0.026  53.250  1.00  0.00    -0.026 A 
ATOM     10  C   UNL     1      22.869  -0.941  54.307  1.00  0.00    +0.005 A 
ATOM     11  C   UNL     1      21.603  -1.410  54.639  1.00  0.00    +0.002 A 
ATOM     12  C   UNL     1      20.672  -0.067  52.868  1.00  0.00    +0.064 A 
ATOM     13  C   UNL     1      20.499  -0.964  53.925  1.00  0.00    +0.023 A 
ATOM     14  C   UNL     1      24.481   0.432  53.012  1.00  0.00    +0.046 C 
ATOM     15 Cl   UNL     1      19.236   0.414  52.010  1.00  0.00    -0.082 Cl
ENDBRANCH   4   8
ENDBRANCH   2   3
ENDBRANCH   1   2
BRANCH   1  16
ATOM     16  C   UNL     1      23.859   5.637  51.434  1.00  0.00    +0.195 C 
BRANCH  16  17
ATOM     17  O   UNL     1      24.279   6.601  52.410  1.00  0.00    -0.385 OA
ATOM     18  H   UNL     1      24.503   6.076  53.209  1.00  0.00    +0.211 HD
ENDBRANCH  16  17
BRANCH  16  19
ATOM     19  C   UNL     1      23.208   6.351  50.236  1.00  0.00    +0.297 C 
BRANCH  19  20
ATOM     20  N   UNL     1      23.847   6.023  48.854  1.00  0.00    -0.329 N 
ATOM     21  C   UNL     1      23.016   4.993  48.088  1.00  0.00    +0.334 C 
ATOM     22  C   UNL     1      24.005   7.274  48.008  1.00  0.00    +0.334 C 
ATOM     23  C   UNL     1      25.229   5.423  49.111  1.00  0.00    +0.334 C 
ENDBRANCH  19  20
ENDBRANCH  16  19
ENDBRANCH   1  16
TORSDOF 7
ENDMDL
MODEL 6
REMARK VINA RESULT:    -5.689      3.028      6.179
REMARK INTER + INTRA:          -8.482
REMARK INTER:                  -7.500
REMARK INTRA:                  -0.982
REMARK UNBOUND:                -0.632
REMARK SMILES Cc1cccc(Cl)c1N1CCC[C@@H]1OC[C@H](O)C[N+](C)(C)C
REMARK SMILES IDX 15 1 14 2 13 3 9 4 10 5 11 6 12 7 8 8 2 9 3 10 4 11 6 12
REMARK SMILES IDX 5 13 1 14 7 15 16 16 17 17 18 19 19 20 20 21 21 22 22 23
REMARK H PARENT 17 18
ROOT
ATOM      1  C   UNL     1      21.639   1.658  49.459  1.00  0.00    +0.200 C 
ENDROOT
BRANCH   1   2
ATOM      2  O   UNL     1      22.708   2.466  49.954  1.00  0.00    -0.355 OA
BRANCH   2   3
ATOM      3  C   UNL     1      23.546   1.767  50.882  1.00  0.00    +0.214 C 
ATOM      4  N   UNL     1      23.048   1.997  52.233  1.00  0.00    -0.345 N 
ATOM      5  C   UNL     1      23.918   2.934  52.955  1.00  0.00    +0.119 C 
ATOM      6  C   UNL     1      24.750   3.587  51.858  1.00  0.00    +0.026 C 
ATOM      7  C   UNL     1      24.912   2.461  50.846  1.00  0.00    +0.057 C 
BRANCH   4   8
ATOM      8  C   UNL     1      22.535   0.956  53.013  1.00  0.00    +0.061 A 
ATOM      9  C   UNL     1      23.319  -0.087  53.563  1.00  0.00    -0.026 A 
ATOM     10  C   UNL     1      22.696  -1.111  54.308  1.00  0.00    +0.005 A 
ATOM     11  C   UNL     1      21.326  -1.109  54.545  1.00  0.00    +0.002 A 
ATOM     12  C   UNL     1      21.142   0.947  53.303  1.00  0.00    +0.064 A 
ATOM     13  C   UNL     1      20.547  -0.071  54.051  1.00  0.00    +0.023 A 
ATOM     14  C   UNL     1      24.814  -0.186  53.405  1.00  0.00    +0.046 C 
ATOM     15 Cl   UNL     1      20.084   2.191  52.698  1.00  0.00    -0.082 Cl
ENDBRANCH   4   8
ENDBRANCH   2   3
ENDBRANCH   1   2
BRANCH   1  16
ATOM     16  C   UNL     1      20.493   2.614  49.106  1.00  0.00    +0.195 C 
BRANCH  16  17
ATOM     17  O   UNL     1      19.890   2.174  47.881  1.00  0.00    -0.385 OA
ATOM     18  H   UNL     1      19.682   1.225  48.023  1.00  0.00    +0.211 HD
ENDBRANCH  16  17
BRANCH  16  19
ATOM     19  C   UNL     1      21.025   4.049  48.946  1.00  0.00    +0.297 C 
BRANCH  19  20
ATOM     20  N   UNL     1      20.366   5.100  49.888  1.00  0.00    -0.329 N 
ATOM     21  C   UNL     1      18.961   4.667  50.307  1.00  0.00    +0.334 C 
ATOM     22  C   UNL     1      21.212   5.337  51.126  1.00  0.00    +0.334 C 
ATOM     23  C   UNL     1      20.248   6.411  49.111  1.00  0.00    +0.334 C 
ENDBRANCH  19  20
ENDBRANCH  16  19
ENDBRANCH   1  16
TORSDOF 7
ENDMDL
MODEL 7
REMARK VINA RESULT:    -5.687      2.715      5.745
REMARK INTER + INTRA:          -8.480
REMARK INTER:                  -7.866
REMARK INTRA:                  -0.614
REMARK UNBOUND:                -0.632
REMARK SMILES Cc1cccc(Cl)c1N1CCC[C@@H]1OC[C@H](O)C[N+](C)(C)C
REMARK SMILES IDX 15 1 14 2 13 3 9 4 10 5 11 6 12 7 8 8 2 9 3 10 4 11 6 12
REMARK SMILES IDX 5 13 1 14 7 15 16 16 17 17 18 19 19 20 20 21 21 22 22 23
REMARK H PARENT 17 18
ROOT
ATOM      1  C   UNL     1      23.514   4.798  52.515  1.00  0.00    +0.200 C 
ENDROOT
BRANCH   1   2
ATOM      2  O   UNL     1      22.500   3.973  51.937  1.00  0.00    -0.355 OA
BRANCH   2   3
ATOM      3  C   UNL     1      22.438   2.673  52.534  1.00  0.00    +0.214 C 
ATOM      4  N   UNL     1      23.145   1.727  51.678  1.00  0.00    -0.345 N 
ATOM      5  C   UNL     1      22.196   0.868  50.957  1.00  0.00    +0.119 C 
ATOM      6  C   UNL     1      20.863   1.593  51.096  1.00  0.00    +0.026 C 
ATOM      7  C   UNL     1      20.972   2.232  52.473  1.00  0.00    +0.057 C 
BRANCH   4   8
ATOM      8  C   UNL     1      24.311   1.081  52.104  1.00  0.00    +0.061 A 
ATOM      9  C   UNL     1      25.616   1.434  51.681  1.00  0.00    -0.026 A 
ATOM     10  C   UNL     1      26.724   0.692  52.145  1.00  0.00    +0.005 A 
ATOM     11  C   UNL     1      26.573  -0.363  53.037  1.00  0.00    +0.002 A 
ATOM     12  C   UNL     1      24.194   0.019  53.043  1.00  0.00    +0.064 A 
ATOM     13  C   UNL     1      25.306  -0.694  53.497  1.00  0.00    +0.023 A 
ATOM     14  C   UNL     1      25.915   2.574  50.743  1.00  0.00    +0.046 C 
ATOM     15 Cl   UNL     1      22.642  -0.485  53.649  1.00  0.00    -0.082 Cl
ENDBRANCH   4   8
ENDBRANCH   2   3
ENDBRANCH   1   2
BRANCH   1  16
ATOM     16  C   UNL     1      23.915   5.817  51.442  1.00  0.00    +0.195 C 
BRANCH  16  17
ATOM     17  O   UNL     1      24.457   6.976  52.091  1.00  0.00    -0.385 OA
ATOM     18  H   UNL     1      24.543   6.724  53.036  1.00  0.00    +0.211 HD
ENDBRANCH  16  17
BRANCH  16  19
ATOM     19  C   UNL     1      22.692   6.211  50.595  1.00  0.00    +0.297 C 
BRANCH  19  20
ATOM     20  N   UNL     1      22.924   6.177  49.055  1.00  0.00    -0.329 N 
ATOM     21  C   UNL     1      21.600   6.229  48.292  1.00  0.00    +0.334 C 
ATOM     22  C   UNL     1      23.811   7.324  48.606  1.00  0.00    +0.334 C 
ATOM     23  C   UNL     1      23.615   4.857  48.718  1.00  0.00    +0.334 C 
ENDBRANCH  19  20
ENDBRANCH  16  19
ENDBRANCH   1  16
TORSDOF 7
ENDMDL
MODEL 8
REMARK VINA RESULT:    -5.658      4.594      8.491
REMARK INTER + INTRA:          -8.439
REMARK INTER:                  -8.097
REMARK INTRA:                  -0.342
REMARK UNBOUND:                -0.632
REMARK SMILES Cc1cccc(Cl)c1N1CCC[C@@H]1OC[C@H](O)C[N+](C)(C)C
REMARK SMILES IDX 15 1 14 2 13 3 9 4 10 5 11 6 12 7 8 8 2 9 3 10 4 11 6 12
REMARK SMILES IDX 5 13 1 14 7 15 16 16 17 17 18 19 19 20 20 21 21 22 22 23
REMARK H PARENT 17 18
ROOT
ATOM      1  C   UNL     1      17.964  -0.476  51.699  1.00  0.00    +0.200 C 
ENDROOT
BRANCH   1   2
ATOM      2  O   UNL     1      19.182  -0.301  52.424  1.00  0.00    -0.355 OA
BRANCH   2   3
ATOM      3  C   UNL     1      20.181   0.393  51.668  1.00  0.00    +0.214 C 
ATOM      4  N   UNL     1      21.057   1.108  52.589  1.00  0.00    -0.345 N 
ATOM      5  C   UNL     1      20.777   2.550  52.558  1.00  0.00    +0.119 C 
ATOM      6  C   UNL     1      19.417   2.649  51.878  1.00  0.00    +0.026 C 
ATOM      7  C   UNL     1      19.454   1.493  50.888  1.00  0.00    +0.057 C 
BRANCH   4   8
ATOM      8  C   UNL     1      22.410   0.777  52.722  1.00  0.00    +0.061 A 
ATOM      9  C   UNL     1      23.437   1.280  51.886  1.00  0.00    -0.026 A 
ATOM     10  C   UNL     1      24.768   0.854  52.083  1.00  0.00    +0.005 A 
ATOM     11  C   UNL     1      25.107  -0.029  53.102  1.00  0.00    +0.002 A 
ATOM     12  C   UNL     1      22.795  -0.098  53.775  1.00  0.00    +0.064 A 
ATOM     13  C   UNL     1      24.120  -0.498  53.959  1.00  0.00    +0.023 A 
ATOM     14  C   UNL     1      23.205   2.264  50.770  1.00  0.00    +0.046 C 
ATOM     15 Cl   UNL     1      21.620  -0.759  54.877  1.00  0.00    -0.082 Cl
ENDBRANCH   4   8
ENDBRANCH   2   3
ENDBRANCH   1   2
BRANCH   1  16
ATOM     16  C   UNL     1      16.856  -0.672  52.740  1.00  0.00    +0.195 C 
BRANCH  16  17
ATOM     17  O   UNL     1      17.435  -1.240  53.924  1.00  0.00    -0.385 OA
ATOM     18  H   UNL     1      17.358  -2.212  53.807  1.00  0.00    +0.211 HD
ENDBRANCH  16  17
BRANCH  16  19
ATOM     19  C   UNL     1      15.764  -1.606  52.190  1.00  0.00    +0.297 C 
BRANCH  19  20
ATOM     20  N   UNL     1      14.334  -0.991  52.156  1.00  0.00    -0.329 N 
ATOM     21  C   UNL     1      14.256   0.282  53.000  1.00  0.00    +0.334 C 
ATOM     22  C   UNL     1      13.899  -0.681  50.735  1.00  0.00    +0.334 C 
ATOM     23  C   UNL     1      13.372  -2.017  52.754  1.00  0.00    +0.334 C 
ENDBRANCH  19  20
ENDBRANCH  16  19
ENDBRANCH   1  16
TORSDOF 7
ENDMDL
MODEL 9
REMARK VINA RESULT:    -5.389      2.248      4.020
REMARK INTER + INTRA:          -8.068
REMARK INTER:                  -7.421
REMARK INTRA:                  -0.647
REMARK UNBOUND:                -0.632
REMARK SMILES Cc1cccc(Cl)c1N1CCC[C@@H]1OC[C@H](O)C[N+](C)(C)C
REMARK SMILES IDX 15 1 14 2 13 3 9 4 10 5 11 6 12 7 8 8 2 9 3 10 4 11 6 12
REMARK SMILES IDX 5 13 1 14 7 15 16 16 17 17 18 19 19 20 20 21 21 22 22 23
REMARK H PARENT 17 18
ROOT
ATOM      1  C   UNL     1      24.922   1.940  51.541  1.00  0.00    +0.200 C 
ENDROOT
BRANCH   1   2
ATOM      2  O   UNL     1      23.997   1.026  52.132  1.00  0.00    -0.355 OA
BRANCH   2   3
ATOM      3  C   UNL     1      22.677   1.145  51.589  1.00  0.00    +0.214 C 
ATOM      4  N   UNL     1      21.980   2.226  52.276  1.00  0.00    -0.345 N 
ATOM      5  C   UNL     1      20.983   1.690  53.212  1.00  0.00    +0.119 C 
ATOM      6  C   UNL     1      21.374   0.226  53.370  1.00  0.00    +0.026 C 
ATOM      7  C   UNL     1      21.921  -0.125  51.993  1.00  0.00    +0.057 C 
BRANCH   4   8
ATOM      8  C   UNL     1      21.587   3.389  51.606  1.00  0.00    +0.061 A 
ATOM      9  C   UNL     1      20.561   3.437  50.630  1.00  0.00    -0.026 A 
ATOM     10  C   UNL     1      20.267   4.658  49.986  1.00  0.00    +0.005 A 
ATOM     11  C   UNL     1      20.939   5.832  50.307  1.00  0.00    +0.002 A 
ATOM     12  C   UNL     1      22.233   4.614  51.934  1.00  0.00    +0.064 A 
ATOM     13  C   UNL     1      21.917   5.813  51.292  1.00  0.00    +0.023 A 
ATOM     14  C   UNL     1      19.739   2.244  50.218  1.00  0.00    +0.046 C 
ATOM     15 Cl   UNL     1      23.492   4.679  53.134  1.00  0.00    -0.082 Cl
ENDBRANCH   4   8
ENDBRANCH   2   3
ENDBRANCH   1   2
BRANCH   1  16
ATOM     16  C   UNL     1      26.239   1.792  52.311  1.00  0.00    +0.195 C 
BRANCH  16  17
ATOM     17  O   UNL     1      27.101   2.884  51.960  1.00  0.00    -0.385 OA
ATOM     18  H   UNL     1      26.912   3.065  51.014  1.00  0.00    +0.211 HD
ENDBRANCH  16  17
BRANCH  16  19
ATOM     19  C   UNL     1      26.915   0.454  51.961  1.00  0.00    +0.297 C 
BRANCH  19  20
ATOM     20  N   UNL     1      27.212  -0.468  53.180  1.00  0.00    -0.329 N 
ATOM     21  C   UNL     1      28.684  -0.391  53.589  1.00  0.00    +0.334 C 
ATOM     22  C   UNL     1      26.339  -0.109  54.369  1.00  0.00    +0.334 C 
ATOM     23  C   UNL     1      26.910  -1.905  52.761  1.00  0.00    +0.334 C 
ENDBRANCH  19  20
ENDBRANCH  16  19
ENDBRANCH   1  16
TORSDOF 7
ENDMDL
