REMARK SMILES N#CC(=Cc1cccc(Cl)c1)C(N)=C(C#N)C(N)=C(C#N)C#N
REMARK SMILES IDX 12 1 14 2 15 3 16 4 3 5 1 6 2 7 4 8 5 9 6 10 11 11 7 12 9 13
REMARK SMILES IDX 8 14 10 15 13 16 17 19 19 20 20 21 22 22 21 23 23 24 18 25
REMARK H PARENT 13 17 13 18 18 26 18 27
ROOT
ATOM      1  C   UNL     1      -1.219   0.585   0.130  1.00  0.00    +0.070 C 
ATOM      2  C   UNL     1      -1.923  -0.577   0.224  1.00  0.00    +0.101 C 
ATOM      3  C   UNL     1      -1.299  -1.850  -0.004  1.00  0.00    +0.104 C 
ATOM      4  N   UNL     1      -0.800  -2.885  -0.164  1.00  0.00    -0.192 NA
ENDROOT
BRANCH   1   5
ATOM      5  C   UNL     1       0.204   0.575  -0.247  1.00  0.00    +0.077 C 
ATOM      6  N   UNL     1       0.740   1.039  -2.740  1.00  0.00    -0.192 NA
ATOM      7  C   UNL     1       0.515   0.819  -1.623  1.00  0.00    +0.101 C 
ATOM      8  C   UNL     1       1.155   0.364   0.686  1.00  0.00    +0.029 C 
BRANCH   8   9
ATOM      9  C   UNL     1       2.596   0.320   0.422  1.00  0.00    -0.023 A 
ATOM     10  C   UNL     1       3.405   1.390   0.822  1.00  0.00    +0.008 A 
ATOM     11  C   UNL     1       3.172  -0.784  -0.216  1.00  0.00    +0.028 A 
ATOM     12  C   UNL     1       4.780   1.361   0.578  1.00  0.00    +0.002 A 
ATOM     13  C   UNL     1       4.546  -0.806  -0.454  1.00  0.00    +0.041 A 
ATOM     14  C   UNL     1       5.351   0.262  -0.061  1.00  0.00    +0.020 A 
ATOM     15 Cl   UNL     1       5.256  -2.166  -1.235  1.00  0.00    -0.084 Cl
ENDBRANCH   8   9
ENDBRANCH   1   5
BRANCH   1  16
ATOM     16  N   UNL     1      -1.736   1.840   0.424  1.00  0.00    -0.397 N 
ATOM     17  H   UNL     1      -1.368   2.604  -0.141  1.00  0.00    +0.156 HD
ATOM     18  H   UNL     1      -2.747   1.885   0.540  1.00  0.00    +0.156 HD
ENDBRANCH   1  16
BRANCH   2  19
ATOM     19  C   UNL     1      -3.356  -0.614   0.598  1.00  0.00    +0.081 C 
ATOM     20  C   UNL     1      -4.311  -0.911  -0.325  1.00  0.00    +0.153 C 
ATOM     21  C   UNL     1      -3.999  -1.173  -1.690  1.00  0.00    +0.113 C 
ATOM     22  C   UNL     1      -5.688  -0.935   0.038  1.00  0.00    +0.113 C 
ATOM     23  N   UNL     1      -3.723  -1.370  -2.799  1.00  0.00    -0.192 NA
ATOM     24  N   UNL     1      -6.799  -0.954   0.372  1.00  0.00    -0.192 NA
BRANCH  19  25
ATOM     25  N   UNL     1      -3.628  -0.283   1.925  1.00  0.00    -0.396 N 
ATOM     26  H   UNL     1      -2.851  -0.406   2.574  1.00  0.00    +0.156 HD
ATOM     27  H   UNL     1      -4.512  -0.617   2.312  1.00  0.00    +0.156 HD
ENDBRANCH  19  25
ENDBRANCH   2  19
TORSDOF 5
