REMARK SMILES O=C(O)c1cc(O)c(O)c(N2CCN(C(=O)c3ccc(F)c(Cl)c3)CC2)c1
REMARK SMILES IDX 4 1 5 2 6 3 8 4 10 5 27 6 2 7 1 8 3 9 7 11 11 13 12 14 26 15
REMARK SMILES IDX 13 16 25 17 14 18 15 19 16 20 17 21 18 22 24 23 19 24 22 25
REMARK SMILES IDX 20 26 23 27 21 28 9 29
REMARK H PARENT 3 10 7 12 9 30
ROOT
ATOM      1  C   UNL     1      -4.406   0.526   0.508  1.00  0.00    +0.065 A 
ATOM      2  C   UNL     1      -5.158  -0.356  -0.278  1.00  0.00    +0.066 A 
ATOM      3  C   UNL     1      -4.526  -1.442  -0.863  1.00  0.00    +0.160 A 
ATOM      4  C   UNL     1      -3.166  -1.651  -0.671  1.00  0.00    +0.181 A 
ATOM      5  C   UNL     1      -2.389  -0.784   0.110  1.00  0.00    +0.084 A 
ATOM      6  C   UNL     1      -3.026   0.313   0.699  1.00  0.00    +0.045 A 
ENDROOT
BRANCH   1   7
ATOM      7  C   UNL     1      -5.018   1.708   1.160  1.00  0.00    +0.335 C 
ATOM      8  O   UNL     1      -4.428   2.518   1.853  1.00  0.00    -0.246 OA
BRANCH   7   9
ATOM      9  O   UNL     1      -6.333   1.821   0.915  1.00  0.00    -0.478 OA
ATOM     10  H   UNL     1      -6.602   2.629   1.400  1.00  0.00    +0.297 HD
ENDBRANCH   7   9
ENDBRANCH   1   7
BRANCH   3  11
ATOM     11  O   UNL     1      -5.249  -2.311  -1.627  1.00  0.00    -0.504 OA
ATOM     12  H   UNL     1      -4.601  -2.986  -1.915  1.00  0.00    +0.293 HD
ENDBRANCH   3  11
BRANCH   5  13
ATOM     13  N   UNL     1      -1.005  -1.057   0.228  1.00  0.00    -0.365 N 
ATOM     14  C   UNL     1      -0.221  -0.184  -0.685  1.00  0.00    +0.138 C 
ATOM     15  C   UNL     1      -0.509  -1.096   1.633  1.00  0.00    +0.138 C 
ATOM     16  C   UNL     1       1.287  -0.287  -0.388  1.00  0.00    +0.141 C 
ATOM     17  C   UNL     1       0.495   0.023   1.956  1.00  0.00    +0.141 C 
ATOM     18  N   UNL     1       1.608   0.074   1.002  1.00  0.00    -0.335 N 
ATOM     19  C   UNL     1       2.792   0.676   1.411  1.00  0.00    +0.254 C 
ATOM     20  O   UNL     1       2.931   1.220   2.502  1.00  0.00    -0.269 OA
BRANCH  19  21
ATOM     21  C   UNL     1       3.954   0.671   0.495  1.00  0.00    +0.041 A 
ATOM     22  C   UNL     1       4.453  -0.531  -0.023  1.00  0.00    +0.017 A 
ATOM     23  C   UNL     1       4.587   1.887   0.212  1.00  0.00    +0.037 A 
ATOM     24  C   UNL     1       5.568  -0.510  -0.862  1.00  0.00    +0.041 A 
ATOM     25  C   UNL     1       5.700   1.900  -0.627  1.00  0.00    +0.077 A 
ATOM     26  C   UNL     1       6.182   0.705  -1.162  1.00  0.00    +0.141 A 
ATOM     27 Cl   UNL     1       6.466   3.397  -0.993  1.00  0.00    -0.081 Cl
ATOM     28  F   UNL     1       7.250   0.700  -1.973  1.00  0.00    -0.205 F 
ENDBRANCH  19  21
ENDBRANCH   5  13
BRANCH   4  29
ATOM     29  O   UNL     1      -2.570  -2.743  -1.248  1.00  0.00    -0.503 OA
ATOM     30  H   UNL     1      -1.654  -2.693  -0.899  1.00  0.00    +0.293 HD
ENDBRANCH   4  29
TORSDOF 6
