MODEL 1
REMARK VINA RESULT:    -5.827      0.000      0.000
REMARK INTER + INTRA:          -8.284
REMARK INTER:                  -7.870
REMARK INTRA:                  -0.413
REMARK UNBOUND:                -0.413
REMARK SMILES C[N+](C)(C)C[C@@H](O)COc1cc(O)c(Cl)cc1F
REMARK SMILES IDX 8 1 6 2 5 3 2 4 1 5 3 6 4 7 7 8 9 10 10 11 11 12 17 13 12 14
REMARK SMILES IDX 16 15 14 16 18 17 15 18 13 19
REMARK H PARENT 7 9 13 20
ROOT
ATOM      1  C   UNL     1      25.357   2.093  52.881  1.00  0.00    +0.267 C 
ENDROOT
BRANCH   1   2
ATOM      2  C   UNL     1      26.886   2.122  52.843  1.00  0.00    +0.206 C 
BRANCH   2   3
ATOM      3  C   UNL     1      27.588   0.744  52.868  1.00  0.00    +0.299 C 
BRANCH   3   4
ATOM      4  N   UNL     1      28.535   0.405  54.050  1.00  0.00    -0.329 N 
ATOM      5  C   UNL     1      27.780   0.062  55.324  1.00  0.00    +0.334 C 
ATOM      6  C   UNL     1      29.371   1.663  54.334  1.00  0.00    +0.334 C 
ATOM      7  C   UNL     1      29.508  -0.723  53.707  1.00  0.00    +0.334 C 
ENDBRANCH   3   4
ENDBRANCH   2   3
BRANCH   2   8
ATOM      8  O   UNL     1      27.330   2.894  51.719  1.00  0.00    -0.384 OA
ATOM      9  H   UNL     1      26.554   3.005  51.130  1.00  0.00    +0.211 HD
ENDBRANCH   2   8
ENDBRANCH   1   2
BRANCH   1  10
ATOM     10  O   UNL     1      24.890   0.853  52.339  1.00  0.00    -0.487 OA
BRANCH  10  11
ATOM     11  C   UNL     1      23.658   0.383  52.697  1.00  0.00    +0.158 A 
ATOM     12  C   UNL     1      23.370  -0.389  53.823  1.00  0.00    +0.097 A 
ATOM     13  C   UNL     1      22.606   0.742  51.842  1.00  0.00    +0.166 A 
ATOM     14  C   UNL     1      22.055  -0.788  54.067  1.00  0.00    +0.138 A 
ATOM     15  C   UNL     1      21.293   0.344  52.081  1.00  0.00    +0.067 A 
ATOM     16  C   UNL     1      21.018  -0.428  53.202  1.00  0.00    +0.085 A 
ATOM     17  F   UNL     1      22.858   1.496  50.761  1.00  0.00    -0.203 F 
ATOM     18 Cl   UNL     1      19.403  -0.931  53.521  1.00  0.00    -0.080 Cl
BRANCH  14  19
ATOM     19  O   UNL     1      21.839  -1.540  55.189  1.00  0.00    -0.506 OA
ATOM     20  H   UNL     1      22.673  -2.013  55.391  1.00  0.00    +0.293 HD
ENDBRANCH  14  19
ENDBRANCH  10  11
ENDBRANCH   1  10
TORSDOF 7
ENDMDL
MODEL 2
REMARK VINA RESULT:    -5.719      3.856      6.795
REMARK INTER + INTRA:          -8.139
REMARK INTER:                  -7.744
REMARK INTRA:                  -0.395
REMARK UNBOUND:                -0.413
REMARK SMILES C[N+](C)(C)C[C@@H](O)COc1cc(O)c(Cl)cc1F
REMARK SMILES IDX 8 1 6 2 5 3 2 4 1 5 3 6 4 7 7 8 9 10 10 11 11 12 17 13 12 14
REMARK SMILES IDX 16 15 14 16 18 17 15 18 13 19
REMARK H PARENT 7 9 13 20
ROOT
ATOM      1  C   UNL     1      23.574  -0.836  54.470  1.00  0.00    +0.267 C 
ENDROOT
BRANCH   1   2
ATOM      2  C   UNL     1      22.105  -0.510  54.199  1.00  0.00    +0.206 C 
BRANCH   2   3
ATOM      3  C   UNL     1      21.647  -0.626  52.726  1.00  0.00    +0.299 C 
BRANCH   3   4
ATOM      4  N   UNL     1      20.683   0.445  52.153  1.00  0.00    -0.329 N 
ATOM      5  C   UNL     1      20.797   1.781  52.870  1.00  0.00    +0.334 C 
ATOM      6  C   UNL     1      19.252  -0.073  52.371  1.00  0.00    +0.334 C 
ATOM      7  C   UNL     1      20.870   0.649  50.650  1.00  0.00    +0.334 C 
ENDBRANCH   3   4
ENDBRANCH   2   3
BRANCH   2   8
ATOM      8  O   UNL     1      21.266  -1.301  55.052  1.00  0.00    -0.384 OA
ATOM      9  H   UNL     1      20.340  -1.109  54.791  1.00  0.00    +0.211 HD
ENDBRANCH   2   8
ENDBRANCH   1   2
BRANCH   1  10
ATOM     10  O   UNL     1      24.353  -0.527  53.309  1.00  0.00    -0.487 OA
BRANCH  10  11
ATOM     11  C   UNL     1      25.705  -0.722  53.333  1.00  0.00    +0.158 A 
ATOM     12  C   UNL     1      26.370  -1.903  53.005  1.00  0.00    +0.097 A 
ATOM     13  C   UNL     1      26.467   0.394  53.712  1.00  0.00    +0.166 A 
ATOM     14  C   UNL     1      27.764  -1.951  53.066  1.00  0.00    +0.138 A 
ATOM     15  C   UNL     1      27.857   0.351  53.776  1.00  0.00    +0.067 A 
ATOM     16  C   UNL     1      28.508  -0.833  53.451  1.00  0.00    +0.085 A 
ATOM     17  F   UNL     1      25.849   1.544  54.019  1.00  0.00    -0.203 F 
ATOM     18 Cl   UNL     1      30.226  -0.912  53.520  1.00  0.00    -0.080 Cl
BRANCH  14  19
ATOM     19  O   UNL     1      28.354  -3.138  52.728  1.00  0.00    -0.506 OA
ATOM     20  H   UNL     1      29.028  -3.335  53.410  1.00  0.00    +0.293 HD
ENDBRANCH  14  19
ENDBRANCH  10  11
ENDBRANCH   1  10
TORSDOF 7
ENDMDL
MODEL 3
REMARK VINA RESULT:    -5.693      2.648      3.903
REMARK INTER + INTRA:          -8.103
REMARK INTER:                  -7.482
REMARK INTRA:                  -0.621
REMARK UNBOUND:                -0.413
REMARK SMILES C[N+](C)(C)C[C@@H](O)COc1cc(O)c(Cl)cc1F
REMARK SMILES IDX 8 1 6 2 5 3 2 4 1 5 3 6 4 7 7 8 9 10 10 11 11 12 17 13 12 14
REMARK SMILES IDX 16 15 14 16 18 17 15 18 13 19
REMARK H PARENT 7 9 13 20
ROOT
ATOM      1  C   UNL     1      23.977  -0.250  53.734  1.00  0.00    +0.267 C 
ENDROOT
BRANCH   1   2
ATOM      2  C   UNL     1      25.212  -0.769  54.472  1.00  0.00    +0.206 C 
BRANCH   2   3
ATOM      3  C   UNL     1      26.309   0.279  54.775  1.00  0.00    +0.299 C 
BRANCH   3   4
ATOM      4  N   UNL     1      27.577   0.317  53.882  1.00  0.00    -0.329 N 
ATOM      5  C   UNL     1      27.629  -0.832  52.888  1.00  0.00    +0.334 C 
ATOM      6  C   UNL     1      28.790   0.174  54.815  1.00  0.00    +0.334 C 
ATOM      7  C   UNL     1      27.724   1.647  53.142  1.00  0.00    +0.334 C 
ENDBRANCH   3   4
ENDBRANCH   2   3
BRANCH   2   8
ATOM      8  O   UNL     1      24.813  -1.442  55.674  1.00  0.00    -0.384 OA
ATOM      9  H   UNL     1      23.835  -1.384  55.718  1.00  0.00    +0.211 HD
ENDBRANCH   2   8
ENDBRANCH   1   2
BRANCH   1  10
ATOM     10  O   UNL     1      24.388   0.554  52.623  1.00  0.00    -0.487 OA
BRANCH  10  11
ATOM     11  C   UNL     1      23.823   1.783  52.434  1.00  0.00    +0.158 A 
ATOM     12  C   UNL     1      24.208   2.968  53.060  1.00  0.00    +0.097 A 
ATOM     13  C   UNL     1      22.771   1.824  51.506  1.00  0.00    +0.166 A 
ATOM     14  C   UNL     1      23.541   4.156  52.757  1.00  0.00    +0.138 A 
ATOM     15  C   UNL     1      22.102   3.007  51.203  1.00  0.00    +0.067 A 
ATOM     16  C   UNL     1      22.491   4.181  51.836  1.00  0.00    +0.085 A 
ATOM     17  F   UNL     1      22.393   0.698  50.882  1.00  0.00    -0.203 F 
ATOM     18 Cl   UNL     1      21.681   5.657  51.476  1.00  0.00    -0.080 Cl
BRANCH  14  19
ATOM     19  O   UNL     1      23.969   5.283  53.403  1.00  0.00    -0.506 OA
ATOM     20  H   UNL     1      23.764   6.048  52.827  1.00  0.00    +0.293 HD
ENDBRANCH  14  19
ENDBRANCH  10  11
ENDBRANCH   1  10
TORSDOF 7
ENDMDL
MODEL 4
REMARK VINA RESULT:    -5.637      0.917      1.493
REMARK INTER + INTRA:          -8.028
REMARK INTER:                  -7.581
REMARK INTRA:                  -0.447
REMARK UNBOUND:                -0.413
REMARK SMILES C[N+](C)(C)C[C@@H](O)COc1cc(O)c(Cl)cc1F
REMARK SMILES IDX 8 1 6 2 5 3 2 4 1 5 3 6 4 7 7 8 9 10 10 11 11 12 17 13 12 14
REMARK SMILES IDX 16 15 14 16 18 17 15 18 13 19
REMARK H PARENT 7 9 13 20
ROOT
ATOM      1  C   UNL     1      25.140   2.193  52.592  1.00  0.00    +0.267 C 
ENDROOT
BRANCH   1   2
ATOM      2  C   UNL     1      26.653   1.973  52.549  1.00  0.00    +0.206 C 
BRANCH   2   3
ATOM      3  C   UNL     1      27.119   0.552  52.155  1.00  0.00    +0.299 C 
BRANCH   3   4
ATOM      4  N   UNL     1      27.459  -0.465  53.276  1.00  0.00    -0.329 N 
ATOM      5  C   UNL     1      28.953  -0.564  53.543  1.00  0.00    +0.334 C 
ATOM      6  C   UNL     1      26.986  -1.845  52.792  1.00  0.00    +0.334 C 
ATOM      7  C   UNL     1      26.721  -0.160  54.579  1.00  0.00    +0.334 C 
ENDBRANCH   3   4
ENDBRANCH   2   3
BRANCH   2   8
ATOM      8  O   UNL     1      27.264   2.957  51.703  1.00  0.00    -0.384 OA
ATOM      9  H   UNL     1      28.182   2.653  51.537  1.00  0.00    +0.211 HD
ENDBRANCH   2   8
ENDBRANCH   1   2
BRANCH   1  10
ATOM     10  O   UNL     1      24.486   1.146  51.867  1.00  0.00    -0.487 OA
BRANCH  10  11
ATOM     11  C   UNL     1      23.312   0.631  52.340  1.00  0.00    +0.158 A 
ATOM     12  C   UNL     1      23.139  -0.040  53.551  1.00  0.00    +0.097 A 
ATOM     13  C   UNL     1      22.194   0.828  51.516  1.00  0.00    +0.166 A 
ATOM     14  C   UNL     1      21.872  -0.502  53.908  1.00  0.00    +0.138 A 
ATOM     15  C   UNL     1      20.928   0.366  51.868  1.00  0.00    +0.067 A 
ATOM     16  C   UNL     1      20.769  -0.305  53.074  1.00  0.00    +0.085 A 
ATOM     17  F   UNL     1      22.335   1.482  50.353  1.00  0.00    -0.203 F 
ATOM     18 Cl   UNL     1      19.213  -0.882  53.533  1.00  0.00    -0.080 Cl
BRANCH  14  19
ATOM     19  O   UNL     1      21.769  -1.149  55.109  1.00  0.00    -0.506 OA
ATOM     20  H   UNL     1      22.555  -0.907  55.641  1.00  0.00    +0.293 HD
ENDBRANCH  14  19
ENDBRANCH  10  11
ENDBRANCH   1  10
TORSDOF 7
ENDMDL
MODEL 5
REMARK VINA RESULT:    -5.605      3.808      6.701
REMARK INTER + INTRA:          -7.984
REMARK INTER:                  -7.583
REMARK INTRA:                  -0.400
REMARK UNBOUND:                -0.413
REMARK SMILES C[N+](C)(C)C[C@@H](O)COc1cc(O)c(Cl)cc1F
REMARK SMILES IDX 8 1 6 2 5 3 2 4 1 5 3 6 4 7 7 8 9 10 10 11 11 12 17 13 12 14
REMARK SMILES IDX 16 15 14 16 18 17 15 18 13 19
REMARK H PARENT 7 9 13 20
ROOT
ATOM      1  C   UNL     1      23.052  -0.584  53.582  1.00  0.00    +0.267 C 
ENDROOT
BRANCH   1   2
ATOM      2  C   UNL     1      21.718   0.102  53.874  1.00  0.00    +0.206 C 
BRANCH   2   3
ATOM      3  C   UNL     1      20.629  -0.044  52.785  1.00  0.00    +0.299 C 
BRANCH   3   4
ATOM      4  N   UNL     1      20.483   1.070  51.715  1.00  0.00    -0.329 N 
ATOM      5  C   UNL     1      21.483   0.927  50.579  1.00  0.00    +0.334 C 
ATOM      6  C   UNL     1      20.770   2.408  52.415  1.00  0.00    +0.334 C 
ATOM      7  C   UNL     1      19.066   1.147  51.148  1.00  0.00    +0.334 C 
ENDBRANCH   3   4
ENDBRANCH   2   3
BRANCH   2   8
ATOM      8  O   UNL     1      21.217  -0.329  55.147  1.00  0.00    -0.384 OA
ATOM      9  H   UNL     1      20.505   0.299  55.396  1.00  0.00    +0.211 HD
ENDBRANCH   2   8
ENDBRANCH   1   2
BRANCH   1  10
ATOM     10  O   UNL     1      24.073   0.407  53.418  1.00  0.00    -0.487 OA
BRANCH  10  11
ATOM     11  C   UNL     1      25.385   0.029  53.420  1.00  0.00    +0.158 A 
ATOM     12  C   UNL     1      25.875  -1.239  53.105  1.00  0.00    +0.097 A 
ATOM     13  C   UNL     1      26.301   1.037  53.758  1.00  0.00    +0.166 A 
ATOM     14  C   UNL     1      27.250  -1.476  53.139  1.00  0.00    +0.138 A 
ATOM     15  C   UNL     1      27.673   0.804  53.795  1.00  0.00    +0.067 A 
ATOM     16  C   UNL     1      28.148  -0.463  53.484  1.00  0.00    +0.085 A 
ATOM     17  F   UNL     1      25.853   2.267  54.051  1.00  0.00    -0.203 F 
ATOM     18 Cl   UNL     1      29.841  -0.775  53.521  1.00  0.00    -0.080 Cl
BRANCH  14  19
ATOM     19  O   UNL     1      27.664  -2.738  52.816  1.00  0.00    -0.506 OA
ATOM     20  H   UNL     1      28.178  -3.082  53.576  1.00  0.00    +0.293 HD
ENDBRANCH  14  19
ENDBRANCH  10  11
ENDBRANCH   1  10
TORSDOF 7
ENDMDL
MODEL 6
REMARK VINA RESULT:    -5.555      2.005      2.554
REMARK INTER + INTRA:          -7.917
REMARK INTER:                  -7.563
REMARK INTRA:                  -0.354
REMARK UNBOUND:                -0.413
REMARK SMILES C[N+](C)(C)C[C@@H](O)COc1cc(O)c(Cl)cc1F
REMARK SMILES IDX 8 1 6 2 5 3 2 4 1 5 3 6 4 7 7 8 9 10 10 11 11 12 17 13 12 14
REMARK SMILES IDX 16 15 14 16 18 17 15 18 13 19
REMARK H PARENT 7 9 13 20
ROOT
ATOM      1  C   UNL     1      25.043   0.735  52.886  1.00  0.00    +0.267 C 
ENDROOT
BRANCH   1   2
ATOM      2  C   UNL     1      26.226   1.381  53.608  1.00  0.00    +0.206 C 
BRANCH   2   3
ATOM      3  C   UNL     1      27.628   1.017  53.066  1.00  0.00    +0.299 C 
BRANCH   3   4
ATOM      4  N   UNL     1      28.772   0.729  54.075  1.00  0.00    -0.329 N 
ATOM      5  C   UNL     1      29.770  -0.292  53.554  1.00  0.00    +0.334 C 
ATOM      6  C   UNL     1      28.122   0.135  55.336  1.00  0.00    +0.334 C 
ATOM      7  C   UNL     1      29.506   2.002  54.496  1.00  0.00    +0.334 C 
ENDBRANCH   3   4
ENDBRANCH   2   3
BRANCH   2   8
ATOM      8  O   UNL     1      26.055   2.804  53.647  1.00  0.00    -0.384 OA
ATOM      9  H   UNL     1      26.003   3.106  52.715  1.00  0.00    +0.211 HD
ENDBRANCH   2   8
ENDBRANCH   1   2
BRANCH   1  10
ATOM     10  O   UNL     1      24.306  -0.075  53.809  1.00  0.00    -0.487 OA
BRANCH  10  11
ATOM     11  C   UNL     1      22.965  -0.260  53.621  1.00  0.00    +0.158 A 
ATOM     12  C   UNL     1      22.192   0.308  52.609  1.00  0.00    +0.097 A 
ATOM     13  C   UNL     1      22.343  -1.120  54.538  1.00  0.00    +0.166 A 
ATOM     14  C   UNL     1      20.829   0.017  52.535  1.00  0.00    +0.138 A 
ATOM     15  C   UNL     1      20.983  -1.412  54.470  1.00  0.00    +0.067 A 
ATOM     16  C   UNL     1      20.222  -0.836  53.460  1.00  0.00    +0.085 A 
ATOM     17  F   UNL     1      23.070  -1.688  55.512  1.00  0.00    -0.203 F 
ATOM     18 Cl   UNL     1      18.540  -1.183  53.352  1.00  0.00    -0.080 Cl
BRANCH  14  19
ATOM     19  O   UNL     1      20.129   0.604  51.517  1.00  0.00    -0.506 OA
ATOM     20  H   UNL     1      19.241   0.828  51.862  1.00  0.00    +0.293 HD
ENDBRANCH  14  19
ENDBRANCH  10  11
ENDBRANCH   1  10
TORSDOF 7
ENDMDL
MODEL 7
REMARK VINA RESULT:    -5.422      3.561      6.520
REMARK INTER + INTRA:          -7.737
REMARK INTER:                  -7.205
REMARK INTRA:                  -0.532
REMARK UNBOUND:                -0.413
REMARK SMILES C[N+](C)(C)C[C@@H](O)COc1cc(O)c(Cl)cc1F
REMARK SMILES IDX 8 1 6 2 5 3 2 4 1 5 3 6 4 7 7 8 9 10 10 11 11 12 17 13 12 14
REMARK SMILES IDX 16 15 14 16 18 17 15 18 13 19
REMARK H PARENT 7 9 13 20
ROOT
ATOM      1  C   UNL     1      22.461  -0.722  54.432  1.00  0.00    +0.267 C 
ENDROOT
BRANCH   1   2
ATOM      2  C   UNL     1      21.094  -0.396  53.829  1.00  0.00    +0.206 C 
BRANCH   2   3
ATOM      3  C   UNL     1      21.059  -0.217  52.293  1.00  0.00    +0.299 C 
BRANCH   3   4
ATOM      4  N   UNL     1      20.362   1.036  51.699  1.00  0.00    -0.329 N 
ATOM      5  C   UNL     1      20.335   2.206  52.669  1.00  0.00    +0.334 C 
ATOM      6  C   UNL     1      18.903   0.646  51.409  1.00  0.00    +0.334 C 
ATOM      7  C   UNL     1      20.989   1.476  50.376  1.00  0.00    +0.334 C 
ENDBRANCH   3   4
ENDBRANCH   2   3
BRANCH   2   8
ATOM      8  O   UNL     1      20.133  -1.377  54.243  1.00  0.00    -0.384 OA
ATOM      9  H   UNL     1      19.579  -0.953  54.933  1.00  0.00    +0.211 HD
ENDBRANCH   2   8
ENDBRANCH   1   2
BRANCH   1  10
ATOM     10  O   UNL     1      23.440  -0.788  53.388  1.00  0.00    -0.487 OA
BRANCH  10  11
ATOM     11  C   UNL     1      24.631  -0.136  53.540  1.00  0.00    +0.158 A 
ATOM     12  C   UNL     1      25.570  -0.367  54.544  1.00  0.00    +0.097 A 
ATOM     13  C   UNL     1      24.911   0.837  52.569  1.00  0.00    +0.166 A 
ATOM     14  C   UNL     1      26.754   0.373  54.565  1.00  0.00    +0.138 A 
ATOM     15  C   UNL     1      26.090   1.579  52.586  1.00  0.00    +0.067 A 
ATOM     16  C   UNL     1      27.016   1.343  53.594  1.00  0.00    +0.085 A 
ATOM     17  F   UNL     1      24.027   1.066  51.586  1.00  0.00    -0.203 F 
ATOM     18 Cl   UNL     1      28.482   2.245  53.637  1.00  0.00    -0.080 Cl
BRANCH  14  19
ATOM     19  O   UNL     1      27.634   0.096  55.574  1.00  0.00    -0.506 OA
ATOM     20  H   UNL     1      28.501  -0.099  55.162  1.00  0.00    +0.293 HD
ENDBRANCH  14  19
ENDBRANCH  10  11
ENDBRANCH   1  10
TORSDOF 7
ENDMDL
MODEL 8
REMARK VINA RESULT:    -5.408      2.049      2.748
REMARK INTER + INTRA:          -7.719
REMARK INTER:                  -7.436
REMARK INTRA:                  -0.283
REMARK UNBOUND:                -0.413
REMARK SMILES C[N+](C)(C)C[C@@H](O)COc1cc(O)c(Cl)cc1F
REMARK SMILES IDX 8 1 6 2 5 3 2 4 1 5 3 6 4 7 7 8 9 10 10 11 11 12 17 13 12 14
REMARK SMILES IDX 16 15 14 16 18 17 15 18 13 19
REMARK H PARENT 7 9 13 20
ROOT
ATOM      1  C   UNL     1      24.089   0.080  54.018  1.00  0.00    +0.267 C 
ENDROOT
BRANCH   1   2
ATOM      2  C   UNL     1      25.302  -0.672  54.567  1.00  0.00    +0.206 C 
BRANCH   2   3
ATOM      3  C   UNL     1      26.527   0.198  54.935  1.00  0.00    +0.299 C 
BRANCH   3   4
ATOM      4  N   UNL     1      27.688   0.330  53.914  1.00  0.00    -0.329 N 
ATOM      5  C   UNL     1      27.886   1.758  53.433  1.00  0.00    +0.334 C 
ATOM      6  C   UNL     1      27.311  -0.520  52.690  1.00  0.00    +0.334 C 
ATOM      7  C   UNL     1      29.006  -0.218  54.462  1.00  0.00    +0.334 C 
ENDBRANCH   3   4
ENDBRANCH   2   3
BRANCH   2   8
ATOM      8  O   UNL     1      24.908  -1.484  55.682  1.00  0.00    -0.384 OA
ATOM      9  H   UNL     1      25.481  -2.280  55.666  1.00  0.00    +0.211 HD
ENDBRANCH   2   8
ENDBRANCH   1   2
BRANCH   1  10
ATOM     10  O   UNL     1      23.331  -0.791  53.172  1.00  0.00    -0.487 OA
BRANCH  10  11
ATOM     11  C   UNL     1      22.018  -0.508  52.918  1.00  0.00    +0.158 A 
ATOM     12  C   UNL     1      20.924  -0.960  53.656  1.00  0.00    +0.097 A 
ATOM     13  C   UNL     1      21.786   0.329  51.817  1.00  0.00    +0.166 A 
ATOM     14  C   UNL     1      19.635  -0.578  53.282  1.00  0.00    +0.138 A 
ATOM     15  C   UNL     1      20.501   0.711  51.440  1.00  0.00    +0.067 A 
ATOM     16  C   UNL     1      19.419   0.251  52.179  1.00  0.00    +0.085 A 
ATOM     17  F   UNL     1      22.824   0.787  51.101  1.00  0.00    -0.203 F 
ATOM     18 Cl   UNL     1      17.821   0.711  51.735  1.00  0.00    -0.080 Cl
BRANCH  14  19
ATOM     19  O   UNL     1      18.607  -1.053  54.049  1.00  0.00    -0.506 OA
ATOM     20  H   UNL     1      18.656  -2.030  54.036  1.00  0.00    +0.293 HD
ENDBRANCH  14  19
ENDBRANCH  10  11
ENDBRANCH   1  10
TORSDOF 7
ENDMDL
MODEL 9
REMARK VINA RESULT:    -5.398      3.899      6.882
REMARK INTER + INTRA:          -7.705
REMARK INTER:                  -7.340
REMARK INTRA:                  -0.365
REMARK UNBOUND:                -0.413
REMARK SMILES C[N+](C)(C)C[C@@H](O)COc1cc(O)c(Cl)cc1F
REMARK SMILES IDX 8 1 6 2 5 3 2 4 1 5 3 6 4 7 7 8 9 10 10 11 11 12 17 13 12 14
REMARK SMILES IDX 16 15 14 16 18 17 15 18 13 19
REMARK H PARENT 7 9 13 20
ROOT
ATOM      1  C   UNL     1      23.900   0.248  53.171  1.00  0.00    +0.267 C 
ENDROOT
BRANCH   1   2
ATOM      2  C   UNL     1      22.539  -0.054  53.800  1.00  0.00    +0.206 C 
BRANCH   2   3
ATOM      3  C   UNL     1      21.456  -0.597  52.838  1.00  0.00    +0.299 C 
BRANCH   3   4
ATOM      4  N   UNL     1      20.568   0.411  52.062  1.00  0.00    -0.329 N 
ATOM      5  C   UNL     1      21.118   0.735  50.682  1.00  0.00    +0.334 C 
ATOM      6  C   UNL     1      20.555   1.718  52.871  1.00  0.00    +0.334 C 
ATOM      7  C   UNL     1      19.120  -0.065  51.941  1.00  0.00    +0.334 C 
ENDBRANCH   3   4
ENDBRANCH   2   3
BRANCH   2   8
ATOM      8  O   UNL     1      22.705  -0.934  54.920  1.00  0.00    -0.384 OA
ATOM      9  H   UNL     1      23.321  -0.487  55.539  1.00  0.00    +0.211 HD
ENDBRANCH   2   8
ENDBRANCH   1   2
BRANCH   1  10
ATOM     10  O   UNL     1      24.751  -0.896  53.303  1.00  0.00    -0.487 OA
BRANCH  10  11
ATOM     11  C   UNL     1      26.097  -0.721  53.451  1.00  0.00    +0.158 A 
ATOM     12  C   UNL     1      26.716   0.233  54.259  1.00  0.00    +0.097 A 
ATOM     13  C   UNL     1      26.903  -1.609  52.723  1.00  0.00    +0.166 A 
ATOM     14  C   UNL     1      28.110   0.286  54.319  1.00  0.00    +0.138 A 
ATOM     15  C   UNL     1      28.294  -1.559  52.779  1.00  0.00    +0.067 A 
ATOM     16  C   UNL     1      28.899  -0.601  53.583  1.00  0.00    +0.085 A 
ATOM     17  F   UNL     1      26.328  -2.543  51.950  1.00  0.00    -0.203 F 
ATOM     18 Cl   UNL     1      30.616  -0.519  53.671  1.00  0.00    -0.080 Cl
BRANCH  14  19
ATOM     19  O   UNL     1      28.654   1.242  55.132  1.00  0.00    -0.506 OA
ATOM     20  H   UNL     1      28.112   1.278  55.947  1.00  0.00    +0.293 HD
ENDBRANCH  14  19
ENDBRANCH  10  11
ENDBRANCH   1  10
TORSDOF 7
ENDMDL
