REMARK SMILES Cc1cccc(C=C2C(=O)N(C)c3ncnc(Nc4[nH]c(C)cc4C)c32)c1
REMARK SMILES IDX 7 1 8 2 9 3 10 4 11 5 12 6 13 7 14 8 15 9 16 10 17 11 26 12
REMARK SMILES IDX 6 13 2 14 3 15 27 16 4 17 5 18 1 19 18 20 19 22 20 23 24 24
REMARK SMILES IDX 21 25 23 26 25 28 22 29
REMARK H PARENT 18 21 20 27
ROOT
ATOM      1  C   UNL     1       1.350  -0.398   0.130  1.00  0.00    +0.023 C 
ATOM      2  C   UNL     1       1.122   0.905   0.362  1.00  0.00    +0.055 C 
ATOM      3  C   UNL     1       2.164   1.961   0.649  1.00  0.00    +0.260 C 
ATOM      4  O   UNL     1       3.373   1.851   0.595  1.00  0.00    -0.269 OA
ATOM      5  N   UNL     1       1.435   3.087   0.994  1.00  0.00    -0.295 N 
ATOM      6  C   UNL     1       1.987   4.359   1.370  1.00  0.00    +0.155 C 
ATOM      7  C   UNL     1       0.058   2.857   0.916  1.00  0.00    +0.148 A 
ATOM      8  N   UNL     1      -0.869   3.778   1.190  1.00  0.00    -0.218 NA
ATOM      9  C   UNL     1      -2.119   3.336   1.036  1.00  0.00    +0.226 A 
ATOM     10  N   UNL     1      -2.487   2.107   0.621  1.00  0.00    -0.218 NA
ATOM     11  C   UNL     1      -1.510   1.220   0.305  1.00  0.00    +0.145 A 
ATOM     12  C   UNL     1      -0.188   1.558   0.500  1.00  0.00    +0.073 A 
ENDROOT
BRANCH   1  13
ATOM     13  C   UNL     1       2.654  -1.063   0.021  1.00  0.00    -0.025 A 
ATOM     14  C   UNL     1       4.775  -1.424  -1.123  1.00  0.00    -0.051 A 
ATOM     15  C   UNL     1       5.087  -2.431  -0.203  1.00  0.00    +0.003 A 
ATOM     16  C   UNL     1       3.556  -0.740  -1.000  1.00  0.00    +0.011 A 
ATOM     17  C   UNL     1       4.187  -2.767   0.808  1.00  0.00    +0.001 A 
ATOM     18  C   UNL     1       2.972  -2.090   0.916  1.00  0.00    +0.008 A 
ATOM     19  C   UNL     1       5.759  -1.030  -2.184  1.00  0.00    +0.044 C 
ENDBRANCH   1  13
BRANCH  11  20
ATOM     20  N   UNL     1      -1.853  -0.061  -0.187  1.00  0.00    -0.326 N 
ATOM     21  H   UNL     1      -1.216  -0.353  -0.922  1.00  0.00    +0.170 HD
BRANCH  20  22
ATOM     22  C   UNL     1      -3.090  -0.617  -0.223  1.00  0.00    +0.112 A 
ATOM     23  N   UNL     1      -4.148  -0.083   0.467  1.00  0.00    -0.345 N 
ATOM     24  C   UNL     1      -3.541  -1.750  -0.875  1.00  0.00    -0.009 A 
ATOM     25  C   UNL     1      -5.276  -0.836   0.270  1.00  0.00    +0.014 A 
ATOM     26  C   UNL     1      -4.925  -1.882  -0.558  1.00  0.00    +0.028 A 
ATOM     27  H   UNL     1      -4.081   0.776   0.999  1.00  0.00    +0.168 HD
ATOM     28  C   UNL     1      -2.750  -2.666  -1.736  1.00  0.00    +0.048 C 
ATOM     29  C   UNL     1      -6.572  -0.475   0.891  1.00  0.00    +0.064 C 
ENDBRANCH  20  22
ENDBRANCH  11  20
TORSDOF 3
