MODEL 1
REMARK VINA RESULT:    -9.438      0.000      0.000
REMARK INTER + INTRA:         -12.224
REMARK INTER:                 -11.093
REMARK INTRA:                  -1.131
REMARK UNBOUND:                -1.131
REMARK SMILES Cc1cccc(C=C2C(=O)N(C)c3ncnc(Nc4ccc(F)c(Cl)c4)c32)c1
REMARK SMILES IDX 7 1 8 2 9 3 10 4 11 5 12 6 13 7 14 8 15 9 16 10 17 11 27 12
REMARK SMILES IDX 6 13 2 14 3 15 28 16 4 17 5 18 1 19 18 20 19 22 20 23 26 24
REMARK SMILES IDX 21 25 24 26 22 27 25 28 23 29
REMARK H PARENT 18 21
ROOT
ATOM      1  C   UNL     1      25.400   0.781  52.030  1.00  0.00    +0.023 C 
ATOM      2  C   UNL     1      24.213   0.502  52.593  1.00  0.00    +0.055 C 
ATOM      3  C   UNL     1      23.979  -0.219  53.901  1.00  0.00    +0.260 C 
ATOM      4  O   UNL     1      24.809  -0.583  54.710  1.00  0.00    -0.269 OA
ATOM      5  N   UNL     1      22.604  -0.374  53.974  1.00  0.00    -0.295 N 
ATOM      6  C   UNL     1      21.890  -1.021  55.039  1.00  0.00    +0.155 C 
ATOM      7  C   UNL     1      21.959   0.194  52.870  1.00  0.00    +0.148 A 
ATOM      8  N   UNL     1      20.637   0.194  52.695  1.00  0.00    -0.218 NA
ATOM      9  C   UNL     1      20.249   0.812  51.576  1.00  0.00    +0.226 A 
ATOM     10  N   UNL     1      21.053   1.418  50.681  1.00  0.00    -0.218 NA
ATOM     11  C   UNL     1      22.385   1.409  50.908  1.00  0.00    +0.144 A 
ATOM     12  C   UNL     1      22.889   0.762  52.015  1.00  0.00    +0.073 A 
ENDROOT
BRANCH   1  13
ATOM     13  C   UNL     1      26.730   0.508  52.587  1.00  0.00    -0.025 A 
ATOM     14  C   UNL     1      28.509  -1.039  53.205  1.00  0.00    -0.051 A 
ATOM     15  C   UNL     1      29.229   0.027  53.755  1.00  0.00    +0.003 A 
ATOM     16  C   UNL     1      27.260  -0.787  52.617  1.00  0.00    +0.011 A 
ATOM     17  C   UNL     1      28.702   1.318  53.741  1.00  0.00    +0.001 A 
ATOM     18  C   UNL     1      27.453   1.557  53.166  1.00  0.00    +0.008 A 
ATOM     19  C   UNL     1      29.093  -2.419  53.177  1.00  0.00    +0.044 C 
ENDBRANCH   1  13
BRANCH  11  20
ATOM     20  N   UNL     1      23.254   2.086  50.021  1.00  0.00    -0.339 N 
ATOM     21  H   UNL     1      23.941   1.427  49.665  1.00  0.00    +0.168 HD
BRANCH  20  22
ATOM     22  C   UNL     1      23.797   3.385  50.145  1.00  0.00    +0.041 A 
ATOM     23  C   UNL     1      23.260   4.257  51.108  1.00  0.00    +0.029 A 
ATOM     24  C   UNL     1      24.932   3.801  49.435  1.00  0.00    +0.049 A 
ATOM     25  C   UNL     1      23.801   5.529  51.310  1.00  0.00    +0.043 A 
ATOM     26  C   UNL     1      25.476   5.073  49.635  1.00  0.00    +0.078 A 
ATOM     27  C   UNL     1      24.904   5.932  50.567  1.00  0.00    +0.141 A 
ATOM     28 Cl   UNL     1      26.859   5.556  48.731  1.00  0.00    -0.081 Cl
ATOM     29  F   UNL     1      25.411   7.156  50.778  1.00  0.00    -0.205 F 
ENDBRANCH  20  22
ENDBRANCH  11  20
TORSDOF 3
ENDMDL
MODEL 2
REMARK VINA RESULT:    -9.411      3.057      6.070
REMARK INTER + INTRA:         -12.192
REMARK INTER:                 -10.961
REMARK INTRA:                  -1.231
REMARK UNBOUND:                -1.131
REMARK SMILES Cc1cccc(C=C2C(=O)N(C)c3ncnc(Nc4ccc(F)c(Cl)c4)c32)c1
REMARK SMILES IDX 7 1 8 2 9 3 10 4 11 5 12 6 13 7 14 8 15 9 16 10 17 11 27 12
REMARK SMILES IDX 6 13 2 14 3 15 28 16 4 17 5 18 1 19 18 20 19 22 20 23 26 24
REMARK SMILES IDX 21 25 24 26 22 27 25 28 23 29
REMARK H PARENT 18 21
ROOT
ATOM      1  C   UNL     1      24.900   3.209  51.071  1.00  0.00    +0.023 C 
ATOM      2  C   UNL     1      23.822   2.493  50.709  1.00  0.00    +0.055 C 
ATOM      3  C   UNL     1      23.056   2.607  49.411  1.00  0.00    +0.260 C 
ATOM      4  O   UNL     1      23.328   3.286  48.442  1.00  0.00    -0.269 OA
ATOM      5  N   UNL     1      21.968   1.763  49.573  1.00  0.00    -0.295 N 
ATOM      6  C   UNL     1      20.930   1.541  48.604  1.00  0.00    +0.155 C 
ATOM      7  C   UNL     1      21.991   1.120  50.815  1.00  0.00    +0.148 A 
ATOM      8  N   UNL     1      21.067   0.248  51.222  1.00  0.00    -0.218 NA
ATOM      9  C   UNL     1      21.308  -0.252  52.437  1.00  0.00    +0.226 A 
ATOM     10  N   UNL     1      22.368   0.030  53.218  1.00  0.00    -0.218 NA
ATOM     11  C   UNL     1      23.288   0.906  52.758  1.00  0.00    +0.144 A 
ATOM     12  C   UNL     1      23.110   1.508  51.532  1.00  0.00    +0.073 A 
ENDROOT
BRANCH   1  13
ATOM     13  C   UNL     1      25.609   4.210  50.266  1.00  0.00    -0.025 A 
ATOM     14  C   UNL     1      25.822   6.466  49.370  1.00  0.00    -0.051 A 
ATOM     15  C   UNL     1      26.940   6.056  48.634  1.00  0.00    +0.003 A 
ATOM     16  C   UNL     1      25.165   5.535  50.189  1.00  0.00    +0.011 A 
ATOM     17  C   UNL     1      27.379   4.734  48.696  1.00  0.00    +0.001 A 
ATOM     18  C   UNL     1      26.712   3.812  49.504  1.00  0.00    +0.008 A 
ATOM     19  C   UNL     1      25.374   7.896  49.341  1.00  0.00    +0.044 C 
ENDBRANCH   1  13
BRANCH  11  20
ATOM     20  N   UNL     1      24.443   1.181  53.526  1.00  0.00    -0.339 N 
ATOM     21  H   UNL     1      24.548   2.188  53.616  1.00  0.00    +0.168 HD
BRANCH  20  22
ATOM     22  C   UNL     1      25.698   0.532  53.488  1.00  0.00    +0.041 A 
ATOM     23  C   UNL     1      25.792  -0.730  52.875  1.00  0.00    +0.029 A 
ATOM     24  C   UNL     1      26.881   1.146  53.925  1.00  0.00    +0.049 A 
ATOM     25  C   UNL     1      27.020  -1.386  52.759  1.00  0.00    +0.043 A 
ATOM     26  C   UNL     1      28.111   0.492  53.810  1.00  0.00    +0.078 A 
ATOM     27  C   UNL     1      28.173  -0.772  53.234  1.00  0.00    +0.141 A 
ATOM     28 Cl   UNL     1      29.540   1.269  54.374  1.00  0.00    -0.081 Cl
ATOM     29  F   UNL     1      29.343  -1.416  53.110  1.00  0.00    -0.205 F 
ENDBRANCH  20  22
ENDBRANCH  11  20
TORSDOF 3
ENDMDL
MODEL 3
REMARK VINA RESULT:    -8.778      3.209      6.500
REMARK INTER + INTRA:         -11.449
REMARK INTER:                 -10.329
REMARK INTRA:                  -1.119
REMARK UNBOUND:                -1.131
REMARK SMILES Cc1cccc(C=C2C(=O)N(C)c3ncnc(Nc4ccc(F)c(Cl)c4)c32)c1
REMARK SMILES IDX 7 1 8 2 9 3 10 4 11 5 12 6 13 7 14 8 15 9 16 10 17 11 27 12
REMARK SMILES IDX 6 13 2 14 3 15 28 16 4 17 5 18 1 19 18 20 19 22 20 23 26 24
REMARK SMILES IDX 21 25 24 26 22 27 25 28 23 29
REMARK H PARENT 18 21
ROOT
ATOM      1  C   UNL     1      23.077   1.512  51.731  1.00  0.00    +0.023 C 
ATOM      2  C   UNL     1      23.164   2.835  51.514  1.00  0.00    +0.055 C 
ATOM      3  C   UNL     1      22.097   3.868  51.788  1.00  0.00    +0.260 C 
ATOM      4  O   UNL     1      21.023   3.705  52.333  1.00  0.00    -0.269 OA
ATOM      5  N   UNL     1      22.614   5.049  51.277  1.00  0.00    -0.295 N 
ATOM      6  C   UNL     1      21.954   6.325  51.287  1.00  0.00    +0.155 C 
ATOM      7  C   UNL     1      23.892   4.865  50.742  1.00  0.00    +0.148 A 
ATOM      8  N   UNL     1      24.621   5.839  50.194  1.00  0.00    -0.218 NA
ATOM      9  C   UNL     1      25.819   5.432  49.768  1.00  0.00    +0.226 A 
ATOM     10  N   UNL     1      26.319   4.185  49.870  1.00  0.00    -0.218 NA
ATOM     11  C   UNL     1      25.553   3.234  50.447  1.00  0.00    +0.144 A 
ATOM     12  C   UNL     1      24.284   3.544  50.884  1.00  0.00    +0.073 A 
ENDROOT
BRANCH   1  13
ATOM     13  C   UNL     1      21.956   0.787  52.340  1.00  0.00    -0.025 A 
ATOM     14  C   UNL     1      19.674  -0.066  52.267  1.00  0.00    -0.051 A 
ATOM     15  C   UNL     1      19.811  -0.513  53.586  1.00  0.00    +0.003 A 
ATOM     16  C   UNL     1      20.756   0.578  51.649  1.00  0.00    +0.011 A 
ATOM     17  C   UNL     1      20.998  -0.297  54.285  1.00  0.00    +0.001 A 
ATOM     18  C   UNL     1      22.065   0.357  53.667  1.00  0.00    +0.008 A 
ATOM     19  C   UNL     1      18.416  -0.337  51.498  1.00  0.00    +0.044 C 
ENDBRANCH   1  13
BRANCH  11  20
ATOM     20  N   UNL     1      26.068   1.928  50.624  1.00  0.00    -0.339 N 
ATOM     21  H   UNL     1      25.428   1.261  50.201  1.00  0.00    +0.168 HD
BRANCH  20  22
ATOM     22  C   UNL     1      26.708   1.383  51.760  1.00  0.00    +0.041 A 
ATOM     23  C   UNL     1      26.479   0.036  52.088  1.00  0.00    +0.029 A 
ATOM     24  C   UNL     1      27.661   2.093  52.505  1.00  0.00    +0.049 A 
ATOM     25  C   UNL     1      27.134  -0.566  53.166  1.00  0.00    +0.043 A 
ATOM     26  C   UNL     1      28.317   1.495  53.583  1.00  0.00    +0.078 A 
ATOM     27  C   UNL     1      28.047   0.171  53.912  1.00  0.00    +0.141 A 
ATOM     28 Cl   UNL     1      29.467   2.403  54.487  1.00  0.00    -0.081 Cl
ATOM     29  F   UNL     1      28.667  -0.425  54.940  1.00  0.00    -0.205 F 
ENDBRANCH  20  22
ENDBRANCH  11  20
TORSDOF 3
ENDMDL
MODEL 4
REMARK VINA RESULT:    -8.755      3.441      6.676
REMARK INTER + INTRA:         -11.421
REMARK INTER:                 -10.698
REMARK INTRA:                  -0.724
REMARK UNBOUND:                -1.131
REMARK SMILES Cc1cccc(C=C2C(=O)N(C)c3ncnc(Nc4ccc(F)c(Cl)c4)c32)c1
REMARK SMILES IDX 7 1 8 2 9 3 10 4 11 5 12 6 13 7 14 8 15 9 16 10 17 11 27 12
REMARK SMILES IDX 6 13 2 14 3 15 28 16 4 17 5 18 1 19 18 20 19 22 20 23 26 24
REMARK SMILES IDX 21 25 24 26 22 27 25 28 23 29
REMARK H PARENT 18 21
ROOT
ATOM      1  C   UNL     1      22.783   1.634  51.325  1.00  0.00    +0.023 C 
ATOM      2  C   UNL     1      22.208   0.723  52.127  1.00  0.00    +0.055 C 
ATOM      3  C   UNL     1      20.760   0.290  52.111  1.00  0.00    +0.260 C 
ATOM      4  O   UNL     1      19.894   0.611  51.322  1.00  0.00    -0.269 OA
ATOM      5  N   UNL     1      20.637  -0.558  53.201  1.00  0.00    -0.295 N 
ATOM      6  C   UNL     1      19.431  -1.219  53.615  1.00  0.00    +0.155 C 
ATOM      7  C   UNL     1      21.854  -0.718  53.873  1.00  0.00    +0.148 A 
ATOM      8  N   UNL     1      22.017  -1.488  54.950  1.00  0.00    -0.218 NA
ATOM      9  C   UNL     1      23.272  -1.501  55.408  1.00  0.00    +0.226 A 
ATOM     10  N   UNL     1      24.321  -0.847  54.874  1.00  0.00    -0.218 NA
ATOM     11  C   UNL     1      24.113  -0.093  53.773  1.00  0.00    +0.144 A 
ATOM     12  C   UNL     1      22.846   0.018  53.245  1.00  0.00    +0.073 A 
ENDROOT
BRANCH   1  13
ATOM     13  C   UNL     1      22.153   2.361  50.217  1.00  0.00    -0.025 A 
ATOM     14  C   UNL     1      20.918   4.274  49.348  1.00  0.00    -0.051 A 
ATOM     15  C   UNL     1      20.873   3.660  48.091  1.00  0.00    +0.003 A 
ATOM     16  C   UNL     1      21.566   3.618  50.405  1.00  0.00    +0.011 A 
ATOM     17  C   UNL     1      21.444   2.402  47.899  1.00  0.00    +0.001 A 
ATOM     18  C   UNL     1      22.076   1.751  48.960  1.00  0.00    +0.008 A 
ATOM     19  C   UNL     1      20.346   5.646  49.546  1.00  0.00    +0.044 C 
ENDBRANCH   1  13
BRANCH  11  20
ATOM     20  N   UNL     1      25.203   0.559  53.151  1.00  0.00    -0.339 N 
ATOM     21  H   UNL     1      24.940   0.807  52.201  1.00  0.00    +0.168 HD
BRANCH  20  22
ATOM     22  C   UNL     1      26.579   0.254  53.245  1.00  0.00    +0.041 A 
ATOM     23  C   UNL     1      27.477   1.269  53.615  1.00  0.00    +0.029 A 
ATOM     24  C   UNL     1      27.075  -1.051  53.107  1.00  0.00    +0.049 A 
ATOM     25  C   UNL     1      28.839   1.004  53.780  1.00  0.00    +0.043 A 
ATOM     26  C   UNL     1      28.437  -1.320  53.271  1.00  0.00    +0.078 A 
ATOM     27  C   UNL     1      29.312  -0.291  53.601  1.00  0.00    +0.141 A 
ATOM     28 Cl   UNL     1      29.013  -2.931  53.075  1.00  0.00    -0.081 Cl
ATOM     29  F   UNL     1      30.622  -0.527  53.767  1.00  0.00    -0.205 F 
ENDBRANCH  20  22
ENDBRANCH  11  20
TORSDOF 3
ENDMDL
MODEL 5
REMARK VINA RESULT:    -8.716      1.756      1.988
REMARK INTER + INTRA:         -11.375
REMARK INTER:                 -10.671
REMARK INTRA:                  -0.705
REMARK UNBOUND:                -1.131
REMARK SMILES Cc1cccc(C=C2C(=O)N(C)c3ncnc(Nc4ccc(F)c(Cl)c4)c32)c1
REMARK SMILES IDX 7 1 8 2 9 3 10 4 11 5 12 6 13 7 14 8 15 9 16 10 17 11 27 12
REMARK SMILES IDX 6 13 2 14 3 15 28 16 4 17 5 18 1 19 18 20 19 22 20 23 26 24
REMARK SMILES IDX 21 25 24 26 22 27 25 28 23 29
REMARK H PARENT 18 21
ROOT
ATOM      1  C   UNL     1      25.348   0.787  52.192  1.00  0.00    +0.023 C 
ATOM      2  C   UNL     1      24.175   0.386  52.711  1.00  0.00    +0.055 C 
ATOM      3  C   UNL     1      23.977  -0.480  53.933  1.00  0.00    +0.260 C 
ATOM      4  O   UNL     1      24.822  -0.882  54.708  1.00  0.00    -0.269 OA
ATOM      5  N   UNL     1      22.611  -0.716  53.976  1.00  0.00    -0.295 N 
ATOM      6  C   UNL     1      21.930  -1.510  54.961  1.00  0.00    +0.155 C 
ATOM      7  C   UNL     1      21.941  -0.072  52.931  1.00  0.00    +0.148 A 
ATOM      8  N   UNL     1      20.621  -0.125  52.744  1.00  0.00    -0.218 NA
ATOM      9  C   UNL     1      20.205   0.585  51.692  1.00  0.00    +0.226 A 
ATOM     10  N   UNL     1      20.978   1.324  50.874  1.00  0.00    -0.218 NA
ATOM     11  C   UNL     1      22.307   1.364  51.111  1.00  0.00    +0.144 A 
ATOM     12  C   UNL     1      22.842   0.633  52.150  1.00  0.00    +0.073 A 
ENDROOT
BRANCH   1  13
ATOM     13  C   UNL     1      26.688   0.530  52.731  1.00  0.00    -0.025 A 
ATOM     14  C   UNL     1      28.520  -0.987  53.263  1.00  0.00    -0.051 A 
ATOM     15  C   UNL     1      29.207   0.072  53.866  1.00  0.00    +0.003 A 
ATOM     16  C   UNL     1      27.261  -0.747  52.692  1.00  0.00    +0.011 A 
ATOM     17  C   UNL     1      28.638   1.344  53.919  1.00  0.00    +0.001 A 
ATOM     18  C   UNL     1      27.379   1.571  53.360  1.00  0.00    +0.008 A 
ATOM     19  C   UNL     1      29.148  -2.345  53.163  1.00  0.00    +0.044 C 
ENDBRANCH   1  13
BRANCH  11  20
ATOM     20  N   UNL     1      23.141   2.177  50.309  1.00  0.00    -0.339 N 
ATOM     21  H   UNL     1      24.089   2.137  50.673  1.00  0.00    +0.168 HD
BRANCH  20  22
ATOM     22  C   UNL     1      22.856   3.441  49.745  1.00  0.00    +0.041 A 
ATOM     23  C   UNL     1      22.796   3.562  48.346  1.00  0.00    +0.029 A 
ATOM     24  C   UNL     1      22.505   4.554  50.522  1.00  0.00    +0.049 A 
ATOM     25  C   UNL     1      22.459   4.775  47.741  1.00  0.00    +0.043 A 
ATOM     26  C   UNL     1      22.168   5.769  49.920  1.00  0.00    +0.078 A 
ATOM     27  C   UNL     1      22.151   5.875  48.533  1.00  0.00    +0.141 A 
ATOM     28 Cl   UNL     1      21.761   7.121  50.906  1.00  0.00    -0.081 Cl
ATOM     29  F   UNL     1      21.827   7.030  47.933  1.00  0.00    -0.205 F 
ENDBRANCH  20  22
ENDBRANCH  11  20
TORSDOF 3
ENDMDL
MODEL 6
REMARK VINA RESULT:    -8.592      1.858      2.379
REMARK INTER + INTRA:         -11.230
REMARK INTER:                 -10.062
REMARK INTRA:                  -1.168
REMARK UNBOUND:                -1.131
REMARK SMILES Cc1cccc(C=C2C(=O)N(C)c3ncnc(Nc4ccc(F)c(Cl)c4)c32)c1
REMARK SMILES IDX 7 1 8 2 9 3 10 4 11 5 12 6 13 7 14 8 15 9 16 10 17 11 27 12
REMARK SMILES IDX 6 13 2 14 3 15 28 16 4 17 5 18 1 19 18 20 19 22 20 23 26 24
REMARK SMILES IDX 21 25 24 26 22 27 25 28 23 29
REMARK H PARENT 18 21
ROOT
ATOM      1  C   UNL     1      24.492   1.988  52.718  1.00  0.00    +0.023 C 
ATOM      2  C   UNL     1      23.174   1.734  52.762  1.00  0.00    +0.055 C 
ATOM      3  C   UNL     1      22.517   0.425  53.134  1.00  0.00    +0.260 C 
ATOM      4  O   UNL     1      23.050  -0.586  53.547  1.00  0.00    -0.269 OA
ATOM      5  N   UNL     1      21.167   0.632  52.899  1.00  0.00    -0.295 N 
ATOM      6  C   UNL     1      20.125  -0.338  53.094  1.00  0.00    +0.155 C 
ATOM      7  C   UNL     1      20.913   1.932  52.448  1.00  0.00    +0.148 A 
ATOM      8  N   UNL     1      19.697   2.398  52.157  1.00  0.00    -0.218 NA
ATOM      9  C   UNL     1      19.698   3.674  51.764  1.00  0.00    +0.226 A 
ATOM     10  N   UNL     1      20.775   4.478  51.671  1.00  0.00    -0.218 NA
ATOM     11  C   UNL     1      21.984   3.969  51.993  1.00  0.00    +0.144 A 
ATOM     12  C   UNL     1      22.095   2.650  52.373  1.00  0.00    +0.073 A 
ENDROOT
BRANCH   1  13
ATOM     13  C   UNL     1      25.582   1.075  53.084  1.00  0.00    -0.025 A 
ATOM     14  C   UNL     1      27.202   0.223  54.693  1.00  0.00    -0.051 A 
ATOM     15  C   UNL     1      27.729  -0.613  53.703  1.00  0.00    +0.003 A 
ATOM     16  C   UNL     1      26.123   1.061  54.375  1.00  0.00    +0.011 A 
ATOM     17  C   UNL     1      27.203  -0.596  52.411  1.00  0.00    +0.001 A 
ATOM     18  C   UNL     1      26.138   0.251  52.100  1.00  0.00    +0.008 A 
ATOM     19  C   UNL     1      27.733   0.174  56.094  1.00  0.00    +0.044 C 
ENDBRANCH   1  13
BRANCH  11  20
ATOM     20  N   UNL     1      23.128   4.801  51.965  1.00  0.00    -0.339 N 
ATOM     21  H   UNL     1      23.014   5.542  52.651  1.00  0.00    +0.168 HD
BRANCH  20  22
ATOM     22  C   UNL     1      23.864   5.242  50.842  1.00  0.00    +0.041 A 
ATOM     23  C   UNL     1      23.460   6.415  50.182  1.00  0.00    +0.029 A 
ATOM     24  C   UNL     1      25.058   4.630  50.433  1.00  0.00    +0.049 A 
ATOM     25  C   UNL     1      24.189   6.925  49.105  1.00  0.00    +0.043 A 
ATOM     26  C   UNL     1      25.790   5.138  49.356  1.00  0.00    +0.078 A 
ATOM     27  C   UNL     1      25.349   6.279  48.695  1.00  0.00    +0.141 A 
ATOM     28 Cl   UNL     1      27.241   4.349  48.869  1.00  0.00    -0.081 Cl
ATOM     29  F   UNL     1      26.037   6.786  47.661  1.00  0.00    -0.205 F 
ENDBRANCH  20  22
ENDBRANCH  11  20
TORSDOF 3
ENDMDL
MODEL 7
REMARK VINA RESULT:    -8.333      3.611      5.588
REMARK INTER + INTRA:         -10.926
REMARK INTER:                  -9.744
REMARK INTRA:                  -1.182
REMARK UNBOUND:                -1.131
REMARK SMILES Cc1cccc(C=C2C(=O)N(C)c3ncnc(Nc4ccc(F)c(Cl)c4)c32)c1
REMARK SMILES IDX 7 1 8 2 9 3 10 4 11 5 12 6 13 7 14 8 15 9 16 10 17 11 27 12
REMARK SMILES IDX 6 13 2 14 3 15 28 16 4 17 5 18 1 19 18 20 19 22 20 23 26 24
REMARK SMILES IDX 21 25 24 26 22 27 25 28 23 29
REMARK H PARENT 18 21
ROOT
ATOM      1  C   UNL     1      24.687   2.191  52.633  1.00  0.00    +0.023 C 
ATOM      2  C   UNL     1      24.686   3.119  51.662  1.00  0.00    +0.055 C 
ATOM      3  C   UNL     1      25.834   3.468  50.743  1.00  0.00    +0.260 C 
ATOM      4  O   UNL     1      26.913   2.916  50.655  1.00  0.00    -0.269 OA
ATOM      5  N   UNL     1      25.384   4.562  50.021  1.00  0.00    -0.295 N 
ATOM      6  C   UNL     1      26.133   5.269  49.020  1.00  0.00    +0.155 C 
ATOM      7  C   UNL     1      24.076   4.912  50.372  1.00  0.00    +0.148 A 
ATOM      8  N   UNL     1      23.399   5.922  49.822  1.00  0.00    -0.218 NA
ATOM      9  C   UNL     1      22.160   6.054  50.302  1.00  0.00    +0.226 A 
ATOM     10  N   UNL     1      21.577   5.270  51.229  1.00  0.00    -0.218 NA
ATOM     11  C   UNL     1      22.293   4.248  51.746  1.00  0.00    +0.144 A 
ATOM     12  C   UNL     1      23.597   4.051  51.345  1.00  0.00    +0.073 A 
ENDROOT
BRANCH   1  13
ATOM     13  C   UNL     1      25.775   1.268  52.974  1.00  0.00    -0.025 A 
ATOM     14  C   UNL     1      26.831  -0.925  52.848  1.00  0.00    -0.051 A 
ATOM     15  C   UNL     1      27.820  -0.488  53.736  1.00  0.00    +0.003 A 
ATOM     16  C   UNL     1      25.814  -0.037  52.467  1.00  0.00    +0.011 A 
ATOM     17  C   UNL     1      27.780   0.806  54.255  1.00  0.00    +0.001 A 
ATOM     18  C   UNL     1      26.758   1.679  53.881  1.00  0.00    +0.008 A 
ATOM     19  C   UNL     1      26.896  -2.300  52.253  1.00  0.00    +0.044 C 
ENDBRANCH   1  13
BRANCH  11  20
ATOM     20  N   UNL     1      21.694   3.368  52.677  1.00  0.00    -0.339 N 
ATOM     21  H   UNL     1      22.374   3.135  53.395  1.00  0.00    +0.168 HD
BRANCH  20  22
ATOM     22  C   UNL     1      20.814   2.291  52.426  1.00  0.00    +0.041 A 
ATOM     23  C   UNL     1      21.165   1.008  52.881  1.00  0.00    +0.029 A 
ATOM     24  C   UNL     1      19.547   2.467  51.853  1.00  0.00    +0.049 A 
ATOM     25  C   UNL     1      20.303  -0.078  52.711  1.00  0.00    +0.043 A 
ATOM     26  C   UNL     1      18.682   1.383  51.682  1.00  0.00    +0.078 A 
ATOM     27  C   UNL     1      19.066   0.115  52.106  1.00  0.00    +0.141 A 
ATOM     28 Cl   UNL     1      17.140   1.633  50.957  1.00  0.00    -0.081 Cl
ATOM     29  F   UNL     1      18.251  -0.939  51.955  1.00  0.00    -0.205 F 
ENDBRANCH  20  22
ENDBRANCH  11  20
TORSDOF 3
ENDMDL
MODEL 8
REMARK VINA RESULT:    -7.888      3.879      7.056
REMARK INTER + INTRA:         -10.402
REMARK INTER:                  -9.250
REMARK INTRA:                  -1.152
REMARK UNBOUND:                -1.131
REMARK SMILES Cc1cccc(C=C2C(=O)N(C)c3ncnc(Nc4ccc(F)c(Cl)c4)c32)c1
REMARK SMILES IDX 7 1 8 2 9 3 10 4 11 5 12 6 13 7 14 8 15 9 16 10 17 11 27 12
REMARK SMILES IDX 6 13 2 14 3 15 28 16 4 17 5 18 1 19 18 20 19 22 20 23 26 24
REMARK SMILES IDX 21 25 24 26 22 27 25 28 23 29
REMARK H PARENT 18 21
ROOT
ATOM      1  C   UNL     1      22.860   2.874  51.484  1.00  0.00    +0.023 C 
ATOM      2  C   UNL     1      23.782   2.081  52.054  1.00  0.00    +0.055 C 
ATOM      3  C   UNL     1      25.274   2.115  51.819  1.00  0.00    +0.260 C 
ATOM      4  O   UNL     1      25.907   2.914  51.158  1.00  0.00    -0.269 OA
ATOM      5  N   UNL     1      25.765   1.028  52.526  1.00  0.00    -0.295 N 
ATOM      6  C   UNL     1      27.143   0.630  52.599  1.00  0.00    +0.155 C 
ATOM      7  C   UNL     1      24.745   0.341  53.193  1.00  0.00    +0.148 A 
ATOM      8  N   UNL     1      24.943  -0.737  53.954  1.00  0.00    -0.218 NA
ATOM      9  C   UNL     1      23.823  -1.211  54.505  1.00  0.00    +0.226 A 
ATOM     10  N   UNL     1      22.588  -0.691  54.372  1.00  0.00    -0.218 NA
ATOM     11  C   UNL     1      22.436   0.412  53.606  1.00  0.00    +0.144 A 
ATOM     12  C   UNL     1      23.525   0.955  52.961  1.00  0.00    +0.073 A 
ENDROOT
BRANCH   1  13
ATOM     13  C   UNL     1      23.101   3.989  50.561  1.00  0.00    -0.025 A 
ATOM     14  C   UNL     1      23.473   6.358  50.127  1.00  0.00    -0.051 A 
ATOM     15  C   UNL     1      23.455   6.098  48.752  1.00  0.00    +0.003 A 
ATOM     16  C   UNL     1      23.301   5.294  51.025  1.00  0.00    +0.011 A 
ATOM     17  C   UNL     1      23.244   4.802  48.282  1.00  0.00    +0.001 A 
ATOM     18  C   UNL     1      23.060   3.752  49.182  1.00  0.00    +0.008 A 
ATOM     19  C   UNL     1      23.746   7.741  50.637  1.00  0.00    +0.044 C 
ENDBRANCH   1  13
BRANCH  11  20
ATOM     20  N   UNL     1      21.165   1.020  53.492  1.00  0.00    -0.339 N 
ATOM     21  H   UNL     1      20.915   1.434  54.385  1.00  0.00    +0.168 HD
BRANCH  20  22
ATOM     22  C   UNL     1      20.024   0.547  52.803  1.00  0.00    +0.041 A 
ATOM     23  C   UNL     1      19.736   1.066  51.529  1.00  0.00    +0.029 A 
ATOM     24  C   UNL     1      19.236  -0.510  53.281  1.00  0.00    +0.049 A 
ATOM     25  C   UNL     1      18.655   0.589  50.783  1.00  0.00    +0.043 A 
ATOM     26  C   UNL     1      18.155  -0.990  52.538  1.00  0.00    +0.078 A 
ATOM     27  C   UNL     1      17.866  -0.434  51.296  1.00  0.00    +0.141 A 
ATOM     28 Cl   UNL     1      17.198  -2.276  53.165  1.00  0.00    -0.081 Cl
ATOM     29  F   UNL     1      16.835  -0.881  50.563  1.00  0.00    -0.205 F 
ENDBRANCH  20  22
ENDBRANCH  11  20
TORSDOF 3
ENDMDL
MODEL 9
REMARK VINA RESULT:    -7.704      2.144      5.981
REMARK INTER + INTRA:         -10.186
REMARK INTER:                  -9.188
REMARK INTRA:                  -0.998
REMARK UNBOUND:                -1.131
REMARK SMILES Cc1cccc(C=C2C(=O)N(C)c3ncnc(Nc4ccc(F)c(Cl)c4)c32)c1
REMARK SMILES IDX 7 1 8 2 9 3 10 4 11 5 12 6 13 7 14 8 15 9 16 10 17 11 27 12
REMARK SMILES IDX 6 13 2 14 3 15 28 16 4 17 5 18 1 19 18 20 19 22 20 23 26 24
REMARK SMILES IDX 21 25 24 26 22 27 25 28 23 29
REMARK H PARENT 18 21
ROOT
ATOM      1  C   UNL     1      20.716   1.574  51.318  1.00  0.00    +0.023 C 
ATOM      2  C   UNL     1      21.389   0.756  52.145  1.00  0.00    +0.055 C 
ATOM      3  C   UNL     1      20.794  -0.212  53.140  1.00  0.00    +0.260 C 
ATOM      4  O   UNL     1      19.622  -0.491  53.301  1.00  0.00    -0.269 OA
ATOM      5  N   UNL     1      21.884  -0.715  53.834  1.00  0.00    -0.295 N 
ATOM      6  C   UNL     1      21.826  -1.671  54.904  1.00  0.00    +0.155 C 
ATOM      7  C   UNL     1      23.088  -0.184  53.360  1.00  0.00    +0.148 A 
ATOM      8  N   UNL     1      24.289  -0.506  53.845  1.00  0.00    -0.218 NA
ATOM      9  C   UNL     1      25.296   0.112  53.222  1.00  0.00    +0.226 A 
ATOM     10  N   UNL     1      25.188   0.966  52.187  1.00  0.00    -0.218 NA
ATOM     11  C   UNL     1      23.954   1.250  51.717  1.00  0.00    +0.144 A 
ATOM     12  C   UNL     1      22.845   0.694  52.317  1.00  0.00    +0.073 A 
ENDROOT
BRANCH   1  13
ATOM     13  C   UNL     1      19.261   1.661  51.150  1.00  0.00    -0.025 A 
ATOM     14  C   UNL     1      17.168   0.836  50.214  1.00  0.00    -0.051 A 
ATOM     15  C   UNL     1      16.499   1.929  50.775  1.00  0.00    +0.003 A 
ATOM     16  C   UNL     1      18.551   0.707  50.412  1.00  0.00    +0.011 A 
ATOM     17  C   UNL     1      17.202   2.891  51.500  1.00  0.00    +0.001 A 
ATOM     18  C   UNL     1      18.580   2.761  51.682  1.00  0.00    +0.008 A 
ATOM     19  C   UNL     1      16.408  -0.223  49.473  1.00  0.00    +0.044 C 
ENDBRANCH   1  13
BRANCH  11  20
ATOM     20  N   UNL     1      23.806   2.096  50.594  1.00  0.00    -0.339 N 
ATOM     21  H   UNL     1      23.987   1.560  49.750  1.00  0.00    +0.168 HD
BRANCH  20  22
ATOM     22  C   UNL     1      24.213   3.442  50.449  1.00  0.00    +0.041 A 
ATOM     23  C   UNL     1      23.582   4.430  51.225  1.00  0.00    +0.029 A 
ATOM     24  C   UNL     1      25.305   3.821  49.655  1.00  0.00    +0.049 A 
ATOM     25  C   UNL     1      23.988   5.765  51.162  1.00  0.00    +0.043 A 
ATOM     26  C   UNL     1      25.714   5.155  49.590  1.00  0.00    +0.078 A 
ATOM     27  C   UNL     1      25.051   6.121  50.339  1.00  0.00    +0.141 A 
ATOM     28 Cl   UNL     1      27.048   5.586  48.590  1.00  0.00    -0.081 Cl
ATOM     29  F   UNL     1      25.428   7.408  50.294  1.00  0.00    -0.205 F 
ENDBRANCH  20  22
ENDBRANCH  11  20
TORSDOF 3
ENDMDL
