REMARK SMILES Oc1ccc(-c2ccccc2)cc1
REMARK SMILES IDX 2 1 3 2 4 3 5 4 12 5 13 6 1 7 6 9 7 10 11 11 8 12 10 13 9 14
REMARK H PARENT 1 8
ROOT
ATOM      1  C   UNL     1       3.274  -0.456  -0.316  1.00  0.00    +0.115 A 
ATOM      2  C   UNL     1       2.664   0.054   0.824  1.00  0.00    +0.047 A 
ATOM      3  C   UNL     1       1.278   0.239   0.837  1.00  0.00    +0.012 A 
ATOM      4  C   UNL     1       0.491  -0.081  -0.284  1.00  0.00    -0.018 A 
ATOM      5  C   UNL     1       1.138  -0.595  -1.420  1.00  0.00    +0.012 A 
ATOM      6  C   UNL     1       2.523  -0.782  -1.436  1.00  0.00    +0.047 A 
ENDROOT
BRANCH   1   7
ATOM      7  O   UNL     1       4.622  -0.653  -0.374  1.00  0.00    -0.508 OA
ATOM      8  H   UNL     1       5.010  -0.382   0.474  1.00  0.00    +0.293 HD
ENDBRANCH   1   7
BRANCH   4   9
ATOM      9  C   UNL     1      -0.968   0.117  -0.267  1.00  0.00    -0.018 A 
ATOM     10  C   UNL     1      -1.607   0.874  -1.263  1.00  0.00    +0.009 A 
ATOM     11  C   UNL     1      -1.764  -0.444   0.746  1.00  0.00    +0.009 A 
ATOM     12  C   UNL     1      -2.992   1.064  -1.247  1.00  0.00    +0.001 A 
ATOM     13  C   UNL     1      -3.149  -0.257   0.762  1.00  0.00    +0.001 A 
ATOM     14  C   UNL     1      -3.762   0.498  -0.234  1.00  0.00    +0.000 A 
ENDBRANCH   4   9
TORSDOF 2
