MODEL 1
REMARK VINA RESULT:    -7.565      0.000      0.000
REMARK INTER + INTRA:          -8.380
REMARK INTER:                  -8.229
REMARK INTRA:                  -0.151
REMARK UNBOUND:                -0.151
REMARK SMILES Nc1ccc2ncnc(-c3ccccc3)c2c1
REMARK SMILES IDX 2 1 3 2 4 3 5 4 6 5 7 6 8 7 9 8 16 9 17 10 1 11 10 14 11 15
REMARK SMILES IDX 15 16 12 17 14 18 13 19
REMARK H PARENT 1 12 1 13
ROOT
ATOM      1  C   UNL     1      28.593  -2.097  53.140  1.00  0.00    +0.032 A 
ATOM      2  C   UNL     1      29.813  -1.486  53.405  1.00  0.00    +0.028 A 
ATOM      3  C   UNL     1      29.879  -0.112  53.662  1.00  0.00    +0.031 A 
ATOM      4  C   UNL     1      28.742   0.683  53.700  1.00  0.00    +0.074 A 
ATOM      5  N   UNL     1      28.882   1.987  53.960  1.00  0.00    -0.236 NA
ATOM      6  C   UNL     1      27.760   2.716  54.018  1.00  0.00    +0.223 A 
ATOM      7  N   UNL     1      26.518   2.265  53.834  1.00  0.00    -0.236 NA
ATOM      8  C   UNL     1      26.397   0.948  53.555  1.00  0.00    +0.081 A 
ATOM      9  C   UNL     1      27.499   0.077  53.481  1.00  0.00    +0.029 A 
ATOM     10  C   UNL     1      27.437  -1.321  53.232  1.00  0.00    +0.038 A 
ENDROOT
BRANCH   1  11
ATOM     11  N   UNL     1      28.507  -3.485  53.014  1.00  0.00    -0.399 N 
ATOM     12  H   UNL     1      28.672  -3.832  52.075  1.00  0.00    +0.156 HD
ATOM     13  H   UNL     1      29.032  -4.002  53.713  1.00  0.00    +0.156 HD
ENDBRANCH   1  11
BRANCH   8  14
ATOM     14  C   UNL     1      25.008   0.518  53.330  1.00  0.00    +0.001 A 
ATOM     15  C   UNL     1      24.240   1.092  52.305  1.00  0.00    +0.010 A 
ATOM     16  C   UNL     1      24.420  -0.488  54.118  1.00  0.00    +0.010 A 
ATOM     17  C   UNL     1      22.920   0.692  52.087  1.00  0.00    +0.001 A 
ATOM     18  C   UNL     1      23.100  -0.889  53.900  1.00  0.00    +0.001 A 
ATOM     19  C   UNL     1      22.349  -0.296  52.888  1.00  0.00    +0.000 A 
ENDBRANCH   8  14
TORSDOF 2
ENDMDL
MODEL 2
REMARK VINA RESULT:    -7.348      1.966      5.212
REMARK INTER + INTRA:          -8.143
REMARK INTER:                  -7.900
REMARK INTRA:                  -0.244
REMARK UNBOUND:                -0.151
REMARK SMILES Nc1ccc2ncnc(-c3ccccc3)c2c1
REMARK SMILES IDX 2 1 3 2 4 3 5 4 6 5 7 6 8 7 9 8 16 9 17 10 1 11 10 14 11 15
REMARK SMILES IDX 15 16 12 17 14 18 13 19
REMARK H PARENT 1 12 1 13
ROOT
ATOM      1  C   UNL     1      23.273  -0.932  54.854  1.00  0.00    +0.032 A 
ATOM      2  C   UNL     1      22.146  -0.316  54.320  1.00  0.00    +0.028 A 
ATOM      3  C   UNL     1      22.269   0.623  53.290  1.00  0.00    +0.031 A 
ATOM      4  C   UNL     1      23.500   0.949  52.738  1.00  0.00    +0.074 A 
ATOM      5  N   UNL     1      23.538   1.848  51.749  1.00  0.00    -0.236 NA
ATOM      6  C   UNL     1      24.739   2.116  51.221  1.00  0.00    +0.223 A 
ATOM      7  N   UNL     1      25.901   1.574  51.592  1.00  0.00    -0.236 NA
ATOM      8  C   UNL     1      25.844   0.679  52.604  1.00  0.00    +0.081 A 
ATOM      9  C   UNL     1      24.641   0.305  53.230  1.00  0.00    +0.029 A 
ATOM     10  C   UNL     1      24.509  -0.656  54.269  1.00  0.00    +0.038 A 
ENDROOT
BRANCH   1  11
ATOM     11  N   UNL     1      23.145  -1.961  55.787  1.00  0.00    -0.399 N 
ATOM     12  H   UNL     1      23.113  -2.892  55.386  1.00  0.00    +0.156 HD
ATOM     13  H   UNL     1      23.792  -1.901  56.568  1.00  0.00    +0.156 HD
ENDBRANCH   1  11
BRANCH   8  14
ATOM     14  C   UNL     1      27.159   0.141  52.990  1.00  0.00    +0.001 A 
ATOM     15  C   UNL     1      28.125   0.973  53.580  1.00  0.00    +0.010 A 
ATOM     16  C   UNL     1      27.476  -1.215  52.798  1.00  0.00    +0.010 A 
ATOM     17  C   UNL     1      29.376   0.472  53.945  1.00  0.00    +0.001 A 
ATOM     18  C   UNL     1      28.727  -1.717  53.165  1.00  0.00    +0.001 A 
ATOM     19  C   UNL     1      29.678  -0.873  53.734  1.00  0.00    +0.000 A 
ENDBRANCH   8  14
TORSDOF 2
ENDMDL
MODEL 3
REMARK VINA RESULT:    -7.330      2.398      5.790
REMARK INTER + INTRA:          -8.124
REMARK INTER:                  -7.760
REMARK INTRA:                  -0.364
REMARK UNBOUND:                -0.151
REMARK SMILES Nc1ccc2ncnc(-c3ccccc3)c2c1
REMARK SMILES IDX 2 1 3 2 4 3 5 4 6 5 7 6 8 7 9 8 16 9 17 10 1 11 10 14 11 15
REMARK SMILES IDX 15 16 12 17 14 18 13 19
REMARK H PARENT 1 12 1 13
ROOT
ATOM      1  C   UNL     1      23.495   1.640  51.476  1.00  0.00    +0.032 A 
ATOM      2  C   UNL     1      22.147   1.503  51.789  1.00  0.00    +0.028 A 
ATOM      3  C   UNL     1      21.743   0.678  52.844  1.00  0.00    +0.031 A 
ATOM      4  C   UNL     1      22.657   0.000  53.638  1.00  0.00    +0.074 A 
ATOM      5  N   UNL     1      22.196  -0.762  54.635  1.00  0.00    -0.236 NA
ATOM      6  C   UNL     1      23.108  -1.377  55.398  1.00  0.00    +0.223 A 
ATOM      7  N   UNL     1      24.433  -1.305  55.253  1.00  0.00    -0.236 NA
ATOM      8  C   UNL     1      24.880  -0.544  54.230  1.00  0.00    +0.081 A 
ATOM      9  C   UNL     1      24.021   0.163  53.368  1.00  0.00    +0.029 A 
ATOM     10  C   UNL     1      24.427   1.010  52.301  1.00  0.00    +0.038 A 
ENDROOT
BRANCH   1  11
ATOM     11  N   UNL     1      23.910   2.559  50.512  1.00  0.00    -0.399 N 
ATOM     12  H   UNL     1      23.714   3.528  50.742  1.00  0.00    +0.156 HD
ATOM     13  H   UNL     1      24.865   2.426  50.190  1.00  0.00    +0.156 HD
ENDBRANCH   1  11
BRANCH   8  14
ATOM     14  C   UNL     1      26.346  -0.530  54.101  1.00  0.00    +0.001 A 
ATOM     15  C   UNL     1      27.131   0.247  54.968  1.00  0.00    +0.010 A 
ATOM     16  C   UNL     1      26.999  -1.305  53.126  1.00  0.00    +0.010 A 
ATOM     17  C   UNL     1      28.523   0.269  54.850  1.00  0.00    +0.001 A 
ATOM     18  C   UNL     1      28.391  -1.284  53.009  1.00  0.00    +0.001 A 
ATOM     19  C   UNL     1      29.151  -0.495  53.868  1.00  0.00    +0.000 A 
ENDBRANCH   8  14
TORSDOF 2
ENDMDL
MODEL 4
REMARK VINA RESULT:    -7.302      2.193      5.585
REMARK INTER + INTRA:          -8.094
REMARK INTER:                  -7.951
REMARK INTRA:                  -0.142
REMARK UNBOUND:                -0.151
REMARK SMILES Nc1ccc2ncnc(-c3ccccc3)c2c1
REMARK SMILES IDX 2 1 3 2 4 3 5 4 6 5 7 6 8 7 9 8 16 9 17 10 1 11 10 14 11 15
REMARK SMILES IDX 15 16 12 17 14 18 13 19
REMARK H PARENT 1 12 1 13
ROOT
ATOM      1  C   UNL     1      25.985   3.103  50.419  1.00  0.00    +0.032 A 
ATOM      2  C   UNL     1      24.616   3.311  50.288  1.00  0.00    +0.028 A 
ATOM      3  C   UNL     1      23.704   2.479  50.947  1.00  0.00    +0.031 A 
ATOM      4  C   UNL     1      24.120   1.448  51.778  1.00  0.00    +0.074 A 
ATOM      5  N   UNL     1      23.190   0.701  52.382  1.00  0.00    -0.236 NA
ATOM      6  C   UNL     1      23.628  -0.265  53.200  1.00  0.00    +0.223 A 
ATOM      7  N   UNL     1      24.904  -0.555  53.463  1.00  0.00    -0.236 NA
ATOM      8  C   UNL     1      25.829   0.201  52.830  1.00  0.00    +0.081 A 
ATOM      9  C   UNL     1      25.494   1.253  51.959  1.00  0.00    +0.029 A 
ATOM     10  C   UNL     1      26.415   2.108  51.296  1.00  0.00    +0.038 A 
ENDROOT
BRANCH   1  11
ATOM     11  N   UNL     1      26.895   4.008  49.870  1.00  0.00    -0.399 N 
ATOM     12  H   UNL     1      27.512   4.446  50.546  1.00  0.00    +0.156 HD
ATOM     13  H   UNL     1      27.400   3.655  49.062  1.00  0.00    +0.156 HD
ENDBRANCH   1  11
BRANCH   8  14
ATOM     14  C   UNL     1      27.216  -0.188  53.135  1.00  0.00    +0.001 A 
ATOM     15  C   UNL     1      27.669  -1.489  52.865  1.00  0.00    +0.010 A 
ATOM     16  C   UNL     1      28.126   0.733  53.684  1.00  0.00    +0.010 A 
ATOM     17  C   UNL     1      28.982  -1.867  53.155  1.00  0.00    +0.001 A 
ATOM     18  C   UNL     1      29.440   0.356  53.973  1.00  0.00    +0.001 A 
ATOM     19  C   UNL     1      29.865  -0.944  53.712  1.00  0.00    +0.000 A 
ENDBRANCH   8  14
TORSDOF 2
ENDMDL
MODEL 5
REMARK VINA RESULT:    -6.945      2.193      2.635
REMARK INTER + INTRA:          -7.705
REMARK INTER:                  -7.715
REMARK INTRA:                   0.010
REMARK UNBOUND:                -0.151
REMARK SMILES Nc1ccc2ncnc(-c3ccccc3)c2c1
REMARK SMILES IDX 2 1 3 2 4 3 5 4 6 5 7 6 8 7 9 8 16 9 17 10 1 11 10 14 11 15
REMARK SMILES IDX 15 16 12 17 14 18 13 19
REMARK H PARENT 1 12 1 13
ROOT
ATOM      1  C   UNL     1      27.442   0.438  54.981  1.00  0.00    +0.032 A 
ATOM      2  C   UNL     1      28.519   1.088  54.389  1.00  0.00    +0.028 A 
ATOM      3  C   UNL     1      28.363   1.759  53.171  1.00  0.00    +0.031 A 
ATOM      4  C   UNL     1      27.135   1.836  52.528  1.00  0.00    +0.074 A 
ATOM      5  N   UNL     1      27.060   2.503  51.372  1.00  0.00    -0.236 NA
ATOM      6  C   UNL     1      25.854   2.582  50.796  1.00  0.00    +0.223 A 
ATOM      7  N   UNL     1      24.722   2.052  51.264  1.00  0.00    -0.236 NA
ATOM      8  C   UNL     1      24.820   1.368  52.425  1.00  0.00    +0.081 A 
ATOM      9  C   UNL     1      26.029   1.227  53.132  1.00  0.00    +0.029 A 
ATOM     10  C   UNL     1      26.191   0.556  54.375  1.00  0.00    +0.038 A 
ENDROOT
BRANCH   1  11
ATOM     11  N   UNL     1      27.562  -0.119  56.255  1.00  0.00    -0.399 N 
ATOM     12  H   UNL     1      27.122   0.420  56.993  1.00  0.00    +0.156 HD
ATOM     13  H   UNL     1      27.324  -1.106  56.304  1.00  0.00    +0.156 HD
ENDBRANCH   1  11
BRANCH   8  14
ATOM     14  C   UNL     1      23.547   0.780  52.874  1.00  0.00    +0.001 A 
ATOM     15  C   UNL     1      22.358   1.525  52.815  1.00  0.00    +0.010 A 
ATOM     16  C   UNL     1      23.483  -0.541  53.352  1.00  0.00    +0.010 A 
ATOM     17  C   UNL     1      21.147   0.977  53.243  1.00  0.00    +0.001 A 
ATOM     18  C   UNL     1      22.271  -1.090  53.778  1.00  0.00    +0.001 A 
ATOM     19  C   UNL     1      21.105  -0.330  53.727  1.00  0.00    +0.000 A 
ENDBRANCH   8  14
TORSDOF 2
ENDMDL
MODEL 6
REMARK VINA RESULT:    -6.831      3.904      6.448
REMARK INTER + INTRA:          -7.581
REMARK INTER:                  -7.456
REMARK INTRA:                  -0.125
REMARK UNBOUND:                -0.151
REMARK SMILES Nc1ccc2ncnc(-c3ccccc3)c2c1
REMARK SMILES IDX 2 1 3 2 4 3 5 4 6 5 7 6 8 7 9 8 16 9 17 10 1 11 10 14 11 15
REMARK SMILES IDX 15 16 12 17 14 18 13 19
REMARK H PARENT 1 12 1 13
ROOT
ATOM      1  C   UNL     1      23.692  -0.513  53.935  1.00  0.00    +0.032 A 
ATOM      2  C   UNL     1      22.880  -1.180  54.846  1.00  0.00    +0.028 A 
ATOM      3  C   UNL     1      21.493  -1.218  54.666  1.00  0.00    +0.031 A 
ATOM      4  C   UNL     1      20.879  -0.633  53.568  1.00  0.00    +0.074 A 
ATOM      5  N   UNL     1      19.549  -0.718  53.458  1.00  0.00    -0.236 NA
ATOM      6  C   UNL     1      18.995  -0.168  52.371  1.00  0.00    +0.223 A 
ATOM      7  N   UNL     1      19.644   0.462  51.389  1.00  0.00    -0.236 NA
ATOM      8  C   UNL     1      20.986   0.553  51.526  1.00  0.00    +0.081 A 
ATOM      9  C   UNL     1      21.685   0.003  52.616  1.00  0.00    +0.029 A 
ATOM     10  C   UNL     1      23.094   0.029  52.798  1.00  0.00    +0.038 A 
ENDROOT
BRANCH   1  11
ATOM     11  N   UNL     1      25.082  -0.584  54.039  1.00  0.00    -0.399 N 
ATOM     12  H   UNL     1      25.495  -1.408  53.615  1.00  0.00    +0.156 HD
ATOM     13  H   UNL     1      25.566   0.269  53.773  1.00  0.00    +0.156 HD
ENDBRANCH   1  11
BRANCH   8  14
ATOM     14  C   UNL     1      21.641   1.286  50.430  1.00  0.00    +0.001 A 
ATOM     15  C   UNL     1      21.432   0.910  49.094  1.00  0.00    +0.010 A 
ATOM     16  C   UNL     1      22.475   2.389  50.688  1.00  0.00    +0.010 A 
ATOM     17  C   UNL     1      22.053   1.597  48.049  1.00  0.00    +0.001 A 
ATOM     18  C   UNL     1      23.095   3.078  49.643  1.00  0.00    +0.001 A 
ATOM     19  C   UNL     1      22.887   2.679  48.325  1.00  0.00    +0.000 A 
ENDBRANCH   8  14
TORSDOF 2
ENDMDL
MODEL 7
REMARK VINA RESULT:    -6.612      2.748      5.301
REMARK INTER + INTRA:          -7.343
REMARK INTER:                  -6.949
REMARK INTRA:                  -0.394
REMARK UNBOUND:                -0.151
REMARK SMILES Nc1ccc2ncnc(-c3ccccc3)c2c1
REMARK SMILES IDX 2 1 3 2 4 3 5 4 6 5 7 6 8 7 9 8 16 9 17 10 1 11 10 14 11 15
REMARK SMILES IDX 15 16 12 17 14 18 13 19
REMARK H PARENT 1 12 1 13
ROOT
ATOM      1  C   UNL     1      21.152  -0.592  54.028  1.00  0.00    +0.032 A 
ATOM      2  C   UNL     1      21.667  -1.565  54.877  1.00  0.00    +0.028 A 
ATOM      3  C   UNL     1      23.045  -1.652  55.105  1.00  0.00    +0.031 A 
ATOM      4  C   UNL     1      23.941  -0.760  54.533  1.00  0.00    +0.074 A 
ATOM      5  N   UNL     1      25.243  -0.900  54.805  1.00  0.00    -0.236 NA
ATOM      6  C   UNL     1      26.075  -0.004  54.259  1.00  0.00    +0.223 A 
ATOM      7  N   UNL     1      25.728   1.011  53.465  1.00  0.00    -0.236 NA
ATOM      8  C   UNL     1      24.410   1.126  53.188  1.00  0.00    +0.081 A 
ATOM      9  C   UNL     1      23.437   0.255  53.712  1.00  0.00    +0.029 A 
ATOM     10  C   UNL     1      22.036   0.345  53.492  1.00  0.00    +0.038 A 
ENDROOT
BRANCH   1  11
ATOM     11  N   UNL     1      19.773  -0.419  53.900  1.00  0.00    -0.399 N 
ATOM     12  H   UNL     1      19.315  -0.058  54.730  1.00  0.00    +0.156 HD
ATOM     13  H   UNL     1      19.489   0.075  53.058  1.00  0.00    +0.156 HD
ENDBRANCH   1  11
BRANCH   8  14
ATOM     14  C   UNL     1      24.093   2.242  52.282  1.00  0.00    +0.001 A 
ATOM     15  C   UNL     1      23.958   2.024  50.901  1.00  0.00    +0.010 A 
ATOM     16  C   UNL     1      23.899   3.546  52.772  1.00  0.00    +0.010 A 
ATOM     17  C   UNL     1      23.662   3.079  50.034  1.00  0.00    +0.001 A 
ATOM     18  C   UNL     1      23.602   4.600  51.905  1.00  0.00    +0.001 A 
ATOM     19  C   UNL     1      23.487   4.367  50.537  1.00  0.00    +0.000 A 
ENDBRANCH   8  14
TORSDOF 2
ENDMDL
MODEL 8
REMARK VINA RESULT:    -6.543      4.479      6.545
REMARK INTER + INTRA:          -7.268
REMARK INTER:                  -6.887
REMARK INTRA:                  -0.380
REMARK UNBOUND:                -0.151
REMARK SMILES Nc1ccc2ncnc(-c3ccccc3)c2c1
REMARK SMILES IDX 2 1 3 2 4 3 5 4 6 5 7 6 8 7 9 8 16 9 17 10 1 11 10 14 11 15
REMARK SMILES IDX 15 16 12 17 14 18 13 19
REMARK H PARENT 1 12 1 13
ROOT
ATOM      1  C   UNL     1      23.492   4.713  52.263  1.00  0.00    +0.032 A 
ATOM      2  C   UNL     1      23.286   5.282  51.011  1.00  0.00    +0.028 A 
ATOM      3  C   UNL     1      22.759   4.520  49.963  1.00  0.00    +0.031 A 
ATOM      4  C   UNL     1      22.390   3.193  50.133  1.00  0.00    +0.074 A 
ATOM      5  N   UNL     1      21.885   2.531  49.087  1.00  0.00    -0.236 NA
ATOM      6  C   UNL     1      21.512   1.262  49.297  1.00  0.00    +0.223 A 
ATOM      7  N   UNL     1      21.604   0.594  50.449  1.00  0.00    -0.236 NA
ATOM      8  C   UNL     1      22.133   1.275  51.491  1.00  0.00    +0.081 A 
ATOM      9  C   UNL     1      22.547   2.616  51.399  1.00  0.00    +0.029 A 
ATOM     10  C   UNL     1      23.073   3.398  52.463  1.00  0.00    +0.038 A 
ENDROOT
BRANCH   1  11
ATOM     11  N   UNL     1      23.893   5.501  53.343  1.00  0.00    -0.399 N 
ATOM     12  H   UNL     1      23.682   5.106  54.254  1.00  0.00    +0.156 HD
ATOM     13  H   UNL     1      24.850   5.839  53.283  1.00  0.00    +0.156 HD
ENDBRANCH   1  11
BRANCH   8  14
ATOM     14  C   UNL     1      22.238   0.477  52.724  1.00  0.00    +0.001 A 
ATOM     15  C   UNL     1      21.114   0.276  53.541  1.00  0.00    +0.010 A 
ATOM     16  C   UNL     1      23.454  -0.118  53.105  1.00  0.00    +0.010 A 
ATOM     17  C   UNL     1      21.206  -0.476  54.715  1.00  0.00    +0.001 A 
ATOM     18  C   UNL     1      23.546  -0.871  54.278  1.00  0.00    +0.001 A 
ATOM     19  C   UNL     1      22.423  -1.046  55.084  1.00  0.00    +0.000 A 
ENDBRANCH   8  14
TORSDOF 2
ENDMDL
MODEL 9
REMARK VINA RESULT:    -6.467      2.266      3.617
REMARK INTER + INTRA:          -7.185
REMARK INTER:                  -7.120
REMARK INTRA:                  -0.065
REMARK UNBOUND:                -0.151
REMARK SMILES Nc1ccc2ncnc(-c3ccccc3)c2c1
REMARK SMILES IDX 2 1 3 2 4 3 5 4 6 5 7 6 8 7 9 8 16 9 17 10 1 11 10 14 11 15
REMARK SMILES IDX 15 16 12 17 14 18 13 19
REMARK H PARENT 1 12 1 13
ROOT
ATOM      1  C   UNL     1      26.289  -0.451  52.860  1.00  0.00    +0.032 A 
ATOM      2  C   UNL     1      27.234   0.458  52.397  1.00  0.00    +0.028 A 
ATOM      3  C   UNL     1      26.834   1.680  51.847  1.00  0.00    +0.031 A 
ATOM      4  C   UNL     1      25.498   2.051  51.775  1.00  0.00    +0.074 A 
ATOM      5  N   UNL     1      25.193   3.240  51.245  1.00  0.00    -0.236 NA
ATOM      6  C   UNL     1      23.897   3.576  51.219  1.00  0.00    +0.223 A 
ATOM      7  N   UNL     1      22.882   2.834  51.667  1.00  0.00    -0.236 NA
ATOM      8  C   UNL     1      23.209   1.629  52.184  1.00  0.00    +0.081 A 
ATOM      9  C   UNL     1      24.535   1.169  52.279  1.00  0.00    +0.029 A 
ATOM     10  C   UNL     1      24.948  -0.067  52.846  1.00  0.00    +0.038 A 
ENDROOT
BRANCH   1  11
ATOM     11  N   UNL     1      26.687  -1.611  53.527  1.00  0.00    -0.399 N 
ATOM     12  H   UNL     1      26.305  -1.712  54.461  1.00  0.00    +0.156 HD
ATOM     13  H   UNL     1      26.593  -2.461  52.978  1.00  0.00    +0.156 HD
ENDBRANCH   1  11
BRANCH   8  14
ATOM     14  C   UNL     1      22.047   0.844  52.630  1.00  0.00    +0.001 A 
ATOM     15  C   UNL     1      22.001   0.312  53.929  1.00  0.00    +0.010 A 
ATOM     16  C   UNL     1      20.948   0.622  51.781  1.00  0.00    +0.010 A 
ATOM     17  C   UNL     1      20.903  -0.437  54.359  1.00  0.00    +0.001 A 
ATOM     18  C   UNL     1      19.850  -0.127  52.211  1.00  0.00    +0.001 A 
ATOM     19  C   UNL     1      19.830  -0.659  53.498  1.00  0.00    +0.000 A 
ENDBRANCH   8  14
TORSDOF 2
ENDMDL
