MODEL 1
REMARK VINA RESULT:    -7.271      0.000      0.000
REMARK INTER + INTRA:          -8.759
REMARK INTER:                  -8.334
REMARK INTRA:                  -0.425
REMARK UNBOUND:                -0.425
REMARK SMILES Cc1cc(C)c(-c2ccc(O)c([N+](=O)[O-])c2)[nH]1
REMARK SMILES IDX 7 1 8 2 9 3 10 4 12 5 16 6 6 7 2 8 3 9 17 10 4 11 1 12 5 14
REMARK SMILES IDX 13 15 14 16 15 17 11 18
REMARK H PARENT 17 13 11 19
ROOT
ATOM      1  C   UNL     1      25.803   0.468  53.352  1.00  0.00    +0.005 A 
ATOM      2  C   UNL     1      26.286   1.779  53.440  1.00  0.00    +0.014 A 
ATOM      3  C   UNL     1      27.656   2.029  53.555  1.00  0.00    +0.054 A 
ATOM      4  C   UNL     1      28.562   0.971  53.584  1.00  0.00    +0.194 A 
ATOM      5  C   UNL     1      28.089  -0.345  53.494  1.00  0.00    +0.311 A 
ATOM      6  C   UNL     1      26.711  -0.597  53.379  1.00  0.00    +0.100 A 
ENDROOT
BRANCH   1   7
ATOM      7  C   UNL     1      24.368   0.216  53.236  1.00  0.00    +0.049 A 
ATOM      8  C   UNL     1      22.382  -0.735  53.744  1.00  0.00    +0.012 A 
ATOM      9  C   UNL     1      22.174   0.125  52.689  1.00  0.00    +0.026 A 
ATOM     10  N   UNL     1      23.713  -0.668  54.066  1.00  0.00    -0.358 N 
ATOM     11  C   UNL     1      23.420   0.732  52.361  1.00  0.00    -0.025 A 
ATOM     12  C   UNL     1      21.445  -1.618  54.479  1.00  0.00    +0.064 C 
ATOM     13  H   UNL     1      24.160  -1.207  54.796  1.00  0.00    +0.166 HD
ATOM     14  C   UNL     1      23.631   1.739  51.285  1.00  0.00    +0.047 C 
ENDBRANCH   1   7
BRANCH   5  15
ATOM     15  N   UNL     1      29.012  -1.480  53.513  1.00  0.00    +0.066 N 
ATOM     16  O   UNL     1      30.175  -1.280  53.891  1.00  0.00    -0.258 OA
ATOM     17  O   UNL     1      28.570  -2.584  53.155  1.00  0.00    -0.258 OA
ENDBRANCH   5  15
BRANCH   4  18
ATOM     18  O   UNL     1      29.876   1.333  53.702  1.00  0.00    -0.502 OA
ATOM     19  H   UNL     1      30.378   0.630  54.166  1.00  0.00    +0.293 HD
ENDBRANCH   4  18
TORSDOF 3
ENDMDL
MODEL 2
REMARK VINA RESULT:    -7.162      1.244      2.291
REMARK INTER + INTRA:          -8.634
REMARK INTER:                  -8.122
REMARK INTRA:                  -0.512
REMARK UNBOUND:                -0.425
REMARK SMILES Cc1cc(C)c(-c2ccc(O)c([N+](=O)[O-])c2)[nH]1
REMARK SMILES IDX 7 1 8 2 9 3 10 4 12 5 16 6 6 7 2 8 3 9 17 10 4 11 1 12 5 14
REMARK SMILES IDX 13 15 14 16 15 17 11 18
REMARK H PARENT 17 13 11 19
ROOT
ATOM      1  C   UNL     1      25.928  -0.211  53.266  1.00  0.00    +0.005 A 
ATOM      2  C   UNL     1      26.548  -1.437  52.997  1.00  0.00    +0.014 A 
ATOM      3  C   UNL     1      27.940  -1.556  53.032  1.00  0.00    +0.054 A 
ATOM      4  C   UNL     1      28.731  -0.450  53.336  1.00  0.00    +0.194 A 
ATOM      5  C   UNL     1      28.120   0.780  53.610  1.00  0.00    +0.311 A 
ATOM      6  C   UNL     1      26.721   0.902  53.574  1.00  0.00    +0.100 A 
ENDROOT
BRANCH   1   7
ATOM      7  C   UNL     1      24.472  -0.094  53.224  1.00  0.00    +0.049 A 
ATOM      8  C   UNL     1      22.336  -0.584  53.777  1.00  0.00    +0.012 A 
ATOM      9  C   UNL     1      22.302   0.406  52.820  1.00  0.00    +0.026 A 
ATOM     10  N   UNL     1      23.655  -0.875  54.013  1.00  0.00    -0.358 N 
ATOM     11  C   UNL     1      23.644   0.724  52.465  1.00  0.00    -0.025 A 
ATOM     12  C   UNL     1      21.242  -1.285  54.490  1.00  0.00    +0.064 C 
ATOM     13  H   UNL     1      23.985  -1.579  54.660  1.00  0.00    +0.166 HD
ATOM     14  C   UNL     1      24.051   1.757  51.473  1.00  0.00    +0.047 C 
ENDBRANCH   1   7
BRANCH   5  15
ATOM     15  N   UNL     1      28.920   1.960  53.942  1.00  0.00    +0.066 N 
ATOM     16  O   UNL     1      29.526   1.969  55.022  1.00  0.00    -0.258 OA
ATOM     17  O   UNL     1      28.950   2.884  53.112  1.00  0.00    -0.258 OA
ENDBRANCH   5  15
BRANCH   4  18
ATOM     18  O   UNL     1      30.080  -0.683  53.339  1.00  0.00    -0.502 OA
ATOM     19  H   UNL     1      30.268  -1.566  52.957  1.00  0.00    +0.293 HD
ENDBRANCH   4  18
TORSDOF 3
ENDMDL
MODEL 3
REMARK VINA RESULT:    -7.091      3.839      6.230
REMARK INTER + INTRA:          -8.553
REMARK INTER:                  -7.874
REMARK INTRA:                  -0.679
REMARK UNBOUND:                -0.425
REMARK SMILES Cc1cc(C)c(-c2ccc(O)c([N+](=O)[O-])c2)[nH]1
REMARK SMILES IDX 7 1 8 2 9 3 10 4 12 5 16 6 6 7 2 8 3 9 17 10 4 11 1 12 5 14
REMARK SMILES IDX 13 15 14 16 15 17 11 18
REMARK H PARENT 17 13 11 19
ROOT
ATOM      1  C   UNL     1      24.880  -0.460  54.144  1.00  0.00    +0.005 A 
ATOM      2  C   UNL     1      24.506  -1.223  55.257  1.00  0.00    +0.014 A 
ATOM      3  C   UNL     1      23.160  -1.487  55.522  1.00  0.00    +0.054 A 
ATOM      4  C   UNL     1      22.168  -0.991  54.679  1.00  0.00    +0.194 A 
ATOM      5  C   UNL     1      22.532  -0.231  53.560  1.00  0.00    +0.311 A 
ATOM      6  C   UNL     1      23.886   0.036  53.292  1.00  0.00    +0.100 A 
ENDROOT
BRANCH   1   7
ATOM      7  C   UNL     1      26.290  -0.186  53.875  1.00  0.00    +0.049 A 
ATOM      8  C   UNL     1      28.225   0.979  53.944  1.00  0.00    +0.012 A 
ATOM      9  C   UNL     1      28.453  -0.165  53.211  1.00  0.00    +0.026 A 
ATOM     10  N   UNL     1      26.913   0.951  54.342  1.00  0.00    -0.358 N 
ATOM     11  C   UNL     1      27.240  -0.909  53.164  1.00  0.00    -0.025 A 
ATOM     12  C   UNL     1      29.127   2.099  54.305  1.00  0.00    +0.064 C 
ATOM     13  H   UNL     1      26.457   1.674  54.882  1.00  0.00    +0.166 HD
ATOM     14  C   UNL     1      27.059  -2.220  52.481  1.00  0.00    +0.047 C 
ENDBRANCH   1   7
BRANCH   5  15
ATOM     15  N   UNL     1      21.518   0.298  52.647  1.00  0.00    +0.066 N 
ATOM     16  O   UNL     1      21.640   0.058  51.438  1.00  0.00    -0.258 OA
ATOM     17  O   UNL     1      20.585   0.951  53.143  1.00  0.00    -0.258 OA
ENDBRANCH   5  15
BRANCH   4  18
ATOM     18  O   UNL     1      20.887  -1.310  55.037  1.00  0.00    -0.502 OA
ATOM     19  H   UNL     1      20.253  -0.715  54.583  1.00  0.00    +0.293 HD
ENDBRANCH   4  18
TORSDOF 3
ENDMDL
MODEL 4
REMARK VINA RESULT:    -7.076      1.030      1.817
REMARK INTER + INTRA:          -8.535
REMARK INTER:                  -8.108
REMARK INTRA:                  -0.427
REMARK UNBOUND:                -0.425
REMARK SMILES Cc1cc(C)c(-c2ccc(O)c([N+](=O)[O-])c2)[nH]1
REMARK SMILES IDX 7 1 8 2 9 3 10 4 12 5 16 6 6 7 2 8 3 9 17 10 4 11 1 12 5 14
REMARK SMILES IDX 13 15 14 16 15 17 11 18
REMARK H PARENT 17 13 11 19
ROOT
ATOM      1  C   UNL     1      25.394   0.377  53.239  1.00  0.00    +0.005 A 
ATOM      2  C   UNL     1      25.794   1.716  53.157  1.00  0.00    +0.014 A 
ATOM      3  C   UNL     1      27.149   2.057  53.145  1.00  0.00    +0.054 A 
ATOM      4  C   UNL     1      28.123   1.064  53.214  1.00  0.00    +0.194 A 
ATOM      5  C   UNL     1      27.733  -0.280  53.292  1.00  0.00    +0.311 A 
ATOM      6  C   UNL     1      26.371  -0.624  53.305  1.00  0.00    +0.100 A 
ENDROOT
BRANCH   1   7
ATOM      7  C   UNL     1      23.975   0.030  53.255  1.00  0.00    +0.049 A 
ATOM      8  C   UNL     1      21.842  -0.010  52.509  1.00  0.00    +0.012 A 
ATOM      9  C   UNL     1      21.882  -0.711  53.695  1.00  0.00    +0.026 A 
ATOM     10  N   UNL     1      23.115   0.429  52.254  1.00  0.00    -0.358 N 
ATOM     11  C   UNL     1      23.223  -0.694  54.173  1.00  0.00    -0.025 A 
ATOM     12  C   UNL     1      20.715   0.286  51.592  1.00  0.00    +0.064 C 
ATOM     13  H   UNL     1      23.385   0.988  51.455  1.00  0.00    +0.166 HD
ATOM     14  C   UNL     1      23.701  -1.350  55.421  1.00  0.00    +0.047 C 
ENDBRANCH   1   7
BRANCH   5  15
ATOM     15  N   UNL     1      28.729  -1.350  53.357  1.00  0.00    +0.066 N 
ATOM     16  O   UNL     1      29.895  -1.045  53.643  1.00  0.00    -0.258 OA
ATOM     17  O   UNL     1      28.342  -2.508  53.129  1.00  0.00    -0.258 OA
ENDBRANCH   5  15
BRANCH   4  18
ATOM     18  O   UNL     1      29.415   1.513  53.196  1.00  0.00    -0.502 OA
ATOM     19  H   UNL     1      30.036   0.755  53.240  1.00  0.00    +0.293 HD
ENDBRANCH   4  18
TORSDOF 3
ENDMDL
MODEL 5
REMARK VINA RESULT:    -6.957      2.816      4.831
REMARK INTER + INTRA:          -8.400
REMARK INTER:                  -7.757
REMARK INTRA:                  -0.643
REMARK UNBOUND:                -0.425
REMARK SMILES Cc1cc(C)c(-c2ccc(O)c([N+](=O)[O-])c2)[nH]1
REMARK SMILES IDX 7 1 8 2 9 3 10 4 12 5 16 6 6 7 2 8 3 9 17 10 4 11 1 12 5 14
REMARK SMILES IDX 13 15 14 16 15 17 11 18
REMARK H PARENT 17 13 11 19
ROOT
ATOM      1  C   UNL     1      22.832   0.775  52.608  1.00  0.00    +0.005 A 
ATOM      2  C   UNL     1      21.653   0.279  53.176  1.00  0.00    +0.014 A 
ATOM      3  C   UNL     1      21.698  -0.620  54.245  1.00  0.00    +0.054 A 
ATOM      4  C   UNL     1      22.924  -1.034  54.762  1.00  0.00    +0.194 A 
ATOM      5  C   UNL     1      24.110  -0.540  54.203  1.00  0.00    +0.311 A 
ATOM      6  C   UNL     1      24.065   0.363  53.127  1.00  0.00    +0.100 A 
ENDROOT
BRANCH   1   7
ATOM      7  C   UNL     1      22.775   1.712  51.488  1.00  0.00    +0.049 A 
ATOM      8  C   UNL     1      22.441   2.372  49.352  1.00  0.00    +0.012 A 
ATOM      9  C   UNL     1      22.846   3.475  50.071  1.00  0.00    +0.026 A 
ATOM     10  N   UNL     1      22.399   1.313  50.223  1.00  0.00    -0.358 N 
ATOM     11  C   UNL     1      23.057   3.070  51.420  1.00  0.00    -0.025 A 
ATOM     12  C   UNL     1      22.089   2.219  47.920  1.00  0.00    +0.064 C 
ATOM     13  H   UNL     1      22.150   0.366  49.970  1.00  0.00    +0.166 HD
ATOM     14  C   UNL     1      23.488   3.964  52.530  1.00  0.00    +0.047 C 
ENDBRANCH   1   7
BRANCH   5  15
ATOM     15  N   UNL     1      25.415  -0.947  54.725  1.00  0.00    +0.066 N 
ATOM     16  O   UNL     1      25.578  -0.944  55.953  1.00  0.00    -0.258 OA
ATOM     17  O   UNL     1      26.283  -1.280  53.902  1.00  0.00    -0.258 OA
ENDBRANCH   5  15
BRANCH   4  18
ATOM     18  O   UNL     1      22.848  -1.916  55.805  1.00  0.00    -0.502 OA
ATOM     19  H   UNL     1      23.508  -2.632  55.689  1.00  0.00    +0.293 HD
ENDBRANCH   4  18
TORSDOF 3
ENDMDL
MODEL 6
REMARK VINA RESULT:    -6.899      2.228      2.820
REMARK INTER + INTRA:          -8.332
REMARK INTER:                  -7.701
REMARK INTRA:                  -0.631
REMARK UNBOUND:                -0.425
REMARK SMILES Cc1cc(C)c(-c2ccc(O)c([N+](=O)[O-])c2)[nH]1
REMARK SMILES IDX 7 1 8 2 9 3 10 4 12 5 16 6 6 7 2 8 3 9 17 10 4 11 1 12 5 14
REMARK SMILES IDX 13 15 14 16 15 17 11 18
REMARK H PARENT 17 13 11 19
ROOT
ATOM      1  C   UNL     1      23.284   1.178  52.799  1.00  0.00    +0.005 A 
ATOM      2  C   UNL     1      23.652   2.528  52.755  1.00  0.00    +0.014 A 
ATOM      3  C   UNL     1      24.914   2.939  53.191  1.00  0.00    +0.054 A 
ATOM      4  C   UNL     1      25.827   2.005  53.679  1.00  0.00    +0.194 A 
ATOM      5  C   UNL     1      25.469   0.651  53.724  1.00  0.00    +0.311 A 
ATOM      6  C   UNL     1      24.199   0.237  53.285  1.00  0.00    +0.100 A 
ENDROOT
BRANCH   1   7
ATOM      7  C   UNL     1      21.960   0.758  52.344  1.00  0.00    +0.049 A 
ATOM      8  C   UNL     1      19.892  -0.134  52.526  1.00  0.00    +0.012 A 
ATOM      9  C   UNL     1      20.066   0.253  51.215  1.00  0.00    +0.026 A 
ATOM     10  N   UNL     1      21.045   0.181  53.197  1.00  0.00    -0.358 N 
ATOM     11  C   UNL     1      21.366   0.818  51.089  1.00  0.00    -0.025 A 
ATOM     12  C   UNL     1      18.741  -0.773  53.207  1.00  0.00    +0.064 C 
ATOM     13  H   UNL     1      21.212  -0.004  54.177  1.00  0.00    +0.166 HD
ATOM     14  C   UNL     1      21.947   1.374  49.836  1.00  0.00    +0.047 C 
ENDBRANCH   1   7
BRANCH   5  15
ATOM     15  N   UNL     1      26.405  -0.358  54.221  1.00  0.00    +0.066 N 
ATOM     16  O   UNL     1      26.959  -0.153  55.309  1.00  0.00    -0.258 OA
ATOM     17  O   UNL     1      26.580  -1.370  53.522  1.00  0.00    -0.258 OA
ENDBRANCH   5  15
BRANCH   4  18
ATOM     18  O   UNL     1      27.029   2.520  54.080  1.00  0.00    -0.502 OA
ATOM     19  H   UNL     1      27.043   3.490  53.935  1.00  0.00    +0.293 HD
ENDBRANCH   4  18
TORSDOF 3
ENDMDL
MODEL 7
REMARK VINA RESULT:    -6.742      3.518      5.791
REMARK INTER + INTRA:          -8.153
REMARK INTER:                  -7.695
REMARK INTRA:                  -0.458
REMARK UNBOUND:                -0.425
REMARK SMILES Cc1cc(C)c(-c2ccc(O)c([N+](=O)[O-])c2)[nH]1
REMARK SMILES IDX 7 1 8 2 9 3 10 4 12 5 16 6 6 7 2 8 3 9 17 10 4 11 1 12 5 14
REMARK SMILES IDX 13 15 14 16 15 17 11 18
REMARK H PARENT 17 13 11 19
ROOT
ATOM      1  C   UNL     1      24.958   0.079  53.032  1.00  0.00    +0.005 A 
ATOM      2  C   UNL     1      24.519   1.100  52.181  1.00  0.00    +0.014 A 
ATOM      3  C   UNL     1      23.156   1.377  52.043  1.00  0.00    +0.054 A 
ATOM      4  C   UNL     1      22.213   0.637  52.753  1.00  0.00    +0.194 A 
ATOM      5  C   UNL     1      22.643  -0.385  53.610  1.00  0.00    +0.311 A 
ATOM      6  C   UNL     1      24.014  -0.665  53.750  1.00  0.00    +0.100 A 
ENDROOT
BRANCH   1   7
ATOM      7  C   UNL     1      26.385  -0.207  53.168  1.00  0.00    +0.049 A 
ATOM      8  C   UNL     1      28.243  -1.490  53.261  1.00  0.00    +0.012 A 
ATOM      9  C   UNL     1      28.629  -0.182  53.454  1.00  0.00    +0.026 A 
ATOM     10  N   UNL     1      26.883  -1.489  53.087  1.00  0.00    -0.358 N 
ATOM     11  C   UNL     1      27.466   0.636  53.395  1.00  0.00    -0.025 A 
ATOM     12  C   UNL     1      29.034  -2.743  53.226  1.00  0.00    +0.064 C 
ATOM     13  H   UNL     1      26.318  -2.316  52.941  1.00  0.00    +0.166 HD
ATOM     14  C   UNL     1      27.446   2.118  53.540  1.00  0.00    +0.047 C 
ENDBRANCH   1   7
BRANCH   5  15
ATOM     15  N   UNL     1      21.682  -1.177  54.378  1.00  0.00    +0.066 N 
ATOM     16  O   UNL     1      22.069  -1.700  55.433  1.00  0.00    -0.258 OA
ATOM     17  O   UNL     1      20.529  -1.272  53.929  1.00  0.00    -0.258 OA
ENDBRANCH   5  15
BRANCH   4  18
ATOM     18  O   UNL     1      20.910   0.994  52.538  1.00  0.00    -0.502 OA
ATOM     19  H   UNL     1      20.630   1.657  53.203  1.00  0.00    +0.293 HD
ENDBRANCH   4  18
TORSDOF 3
ENDMDL
MODEL 8
REMARK VINA RESULT:    -6.648      4.501      6.700
REMARK INTER + INTRA:          -8.045
REMARK INTER:                  -7.537
REMARK INTRA:                  -0.507
REMARK UNBOUND:                -0.425
REMARK SMILES Cc1cc(C)c(-c2ccc(O)c([N+](=O)[O-])c2)[nH]1
REMARK SMILES IDX 7 1 8 2 9 3 10 4 12 5 16 6 6 7 2 8 3 9 17 10 4 11 1 12 5 14
REMARK SMILES IDX 13 15 14 16 15 17 11 18
REMARK H PARENT 17 13 11 19
ROOT
ATOM      1  C   UNL     1      23.186  -0.109  53.455  1.00  0.00    +0.005 A 
ATOM      2  C   UNL     1      22.745  -0.964  54.472  1.00  0.00    +0.014 A 
ATOM      3  C   UNL     1      21.389  -1.276  54.605  1.00  0.00    +0.054 A 
ATOM      4  C   UNL     1      20.455  -0.738  53.722  1.00  0.00    +0.194 A 
ATOM      5  C   UNL     1      20.888   0.115  52.698  1.00  0.00    +0.311 A 
ATOM      6  C   UNL     1      22.251   0.431  52.564  1.00  0.00    +0.100 A 
ENDROOT
BRANCH   1   7
ATOM      7  C   UNL     1      24.605   0.215  53.326  1.00  0.00    +0.049 A 
ATOM      8  C   UNL     1      26.821  -0.202  53.171  1.00  0.00    +0.012 A 
ATOM      9  C   UNL     1      26.651   1.165  53.144  1.00  0.00    +0.026 A 
ATOM     10  N   UNL     1      25.575  -0.764  53.279  1.00  0.00    -0.358 N 
ATOM     11  C   UNL     1      25.257   1.439  53.239  1.00  0.00    -0.025 A 
ATOM     12  C   UNL     1      28.048  -1.031  53.106  1.00  0.00    +0.064 C 
ATOM     13  H   UNL     1      25.391  -1.757  53.338  1.00  0.00    +0.166 HD
ATOM     14  C   UNL     1      24.643   2.795  53.230  1.00  0.00    +0.047 C 
ENDBRANCH   1   7
BRANCH   5  15
ATOM     15  N   UNL     1      19.936   0.692  51.747  1.00  0.00    +0.066 N 
ATOM     16  O   UNL     1      19.072  -0.052  51.264  1.00  0.00    -0.258 OA
ATOM     17  O   UNL     1      20.048   1.901  51.487  1.00  0.00    -0.258 OA
ENDBRANCH   5  15
BRANCH   4  18
ATOM     18  O   UNL     1      19.159  -1.111  53.948  1.00  0.00    -0.502 OA
ATOM     19  H   UNL     1      19.101  -2.085  54.046  1.00  0.00    +0.293 HD
ENDBRANCH   4  18
TORSDOF 3
ENDMDL
MODEL 9
REMARK VINA RESULT:    -6.601      1.848      2.762
REMARK INTER + INTRA:          -7.991
REMARK INTER:                  -7.672
REMARK INTRA:                  -0.319
REMARK UNBOUND:                -0.425
REMARK SMILES Cc1cc(C)c(-c2ccc(O)c([N+](=O)[O-])c2)[nH]1
REMARK SMILES IDX 7 1 8 2 9 3 10 4 12 5 16 6 6 7 2 8 3 9 17 10 4 11 1 12 5 14
REMARK SMILES IDX 13 15 14 16 15 17 11 18
REMARK H PARENT 17 13 11 19
ROOT
ATOM      1  C   UNL     1      23.876   0.770  52.967  1.00  0.00    +0.005 A 
ATOM      2  C   UNL     1      23.842   2.064  52.433  1.00  0.00    +0.014 A 
ATOM      3  C   UNL     1      25.022   2.713  52.059  1.00  0.00    +0.054 A 
ATOM      4  C   UNL     1      26.252   2.077  52.215  1.00  0.00    +0.194 A 
ATOM      5  C   UNL     1      26.295   0.781  52.745  1.00  0.00    +0.311 A 
ATOM      6  C   UNL     1      25.110   0.128  53.121  1.00  0.00    +0.100 A 
ENDROOT
BRANCH   1   7
ATOM      7  C   UNL     1      22.637   0.101  53.358  1.00  0.00    +0.049 A 
ATOM      8  C   UNL     1      20.443  -0.430  53.247  1.00  0.00    +0.012 A 
ATOM      9  C   UNL     1      20.984  -1.113  54.315  1.00  0.00    +0.026 A 
ATOM     10  N   UNL     1      21.455   0.297  52.676  1.00  0.00    -0.358 N 
ATOM     11  C   UNL     1      22.368  -0.787  54.392  1.00  0.00    -0.025 A 
ATOM     12  C   UNL     1      19.060  -0.397  52.714  1.00  0.00    +0.064 C 
ATOM     13  H   UNL     1      21.348   0.911  51.879  1.00  0.00    +0.166 HD
ATOM     14  C   UNL     1      23.324  -1.324  55.399  1.00  0.00    +0.047 C 
ENDBRANCH   1   7
BRANCH   5  15
ATOM     15  N   UNL     1      27.569   0.080  52.914  1.00  0.00    +0.066 N 
ATOM     16  O   UNL     1      28.570   0.750  53.202  1.00  0.00    -0.258 OA
ATOM     17  O   UNL     1      27.567  -1.153  52.766  1.00  0.00    -0.258 OA
ENDBRANCH   5  15
BRANCH   4  18
ATOM     18  O   UNL     1      27.338   2.808  51.818  1.00  0.00    -0.502 OA
ATOM     19  H   UNL     1      27.508   3.532  52.457  1.00  0.00    +0.293 HD
ENDBRANCH   4  18
TORSDOF 3
ENDMDL
