MODEL 1
REMARK VINA RESULT:    -7.501      0.000      0.000
REMARK INTER + INTRA:         -10.757
REMARK INTER:                  -9.474
REMARK INTRA:                  -1.283
REMARK UNBOUND:                -1.283
REMARK SMILES Cc1cc(C)c(N(C(=O)c2ccc(O)cc2)c2ccccn2)[nH]1
REMARK SMILES IDX 8 1 9 2 7 3 6 4 2 5 3 6 23 7 4 8 1 9 5 11 17 12 18 13 22 14
REMARK SMILES IDX 19 15 21 16 20 17 10 18 11 19 16 20 12 21 15 22 13 23 14 24
REMARK H PARENT 23 10 14 25
ROOT
ATOM      1  C   UNL     1      24.562   2.554  52.478  1.00  0.00    +0.265 C 
ATOM      2  O   UNL     1      24.272   3.133  53.527  1.00  0.00    -0.268 OA
ENDROOT
BRANCH   1   3
ATOM      3  N   UNL     1      24.216   2.993  51.189  1.00  0.00    -0.245 N 
BRANCH   3   4
ATOM      4  C   UNL     1      24.625   4.260  50.733  1.00  0.00    +0.122 A 
ATOM      5  C   UNL     1      24.507   6.510  50.499  1.00  0.00    +0.014 A 
ATOM      6  C   UNL     1      25.615   6.077  49.808  1.00  0.00    +0.028 A 
ATOM      7  N   UNL     1      23.917   5.401  51.049  1.00  0.00    -0.345 N 
ATOM      8  C   UNL     1      25.704   4.661  49.950  1.00  0.00    -0.008 A 
ATOM      9  C   UNL     1      23.944   7.868  50.686  1.00  0.00    +0.064 C 
ATOM     10  H   UNL     1      23.054   5.414  51.573  1.00  0.00    +0.168 HD
ATOM     11  C   UNL     1      26.803   3.828  49.387  1.00  0.00    +0.048 C 
ENDBRANCH   3   4
BRANCH   3  12
ATOM     12  C   UNL     1      23.202   2.313  50.426  1.00  0.00    +0.141 A 
ATOM     13  C   UNL     1      22.416   1.321  51.019  1.00  0.00    +0.048 A 
ATOM     14  N   UNL     1      23.016   2.635  49.119  1.00  0.00    -0.238 NA
ATOM     15  C   UNL     1      21.429   0.671  50.276  1.00  0.00    +0.005 A 
ATOM     16  C   UNL     1      22.052   1.999  48.419  1.00  0.00    +0.113 A 
ATOM     17  C   UNL     1      21.238   1.018  48.949  1.00  0.00    +0.020 A 
ENDBRANCH   3  12
ENDBRANCH   1   3
BRANCH   1  18
ATOM     18  C   UNL     1      25.306   1.267  52.633  1.00  0.00    +0.041 A 
ATOM     19  C   UNL     1      24.855   0.343  53.587  1.00  0.00    +0.017 A 
ATOM     20  C   UNL     1      26.396   0.942  51.814  1.00  0.00    +0.017 A 
ATOM     21  C   UNL     1      25.511  -0.878  53.750  1.00  0.00    +0.047 A 
ATOM     22  C   UNL     1      27.053  -0.278  51.981  1.00  0.00    +0.047 A 
ATOM     23  C   UNL     1      26.609  -1.176  52.946  1.00  0.00    +0.115 A 
BRANCH  23  24
ATOM     24  O   UNL     1      27.279  -2.356  53.070  1.00  0.00    -0.508 OA
ATOM     25  H   UNL     1      27.938  -2.271  53.778  1.00  0.00    +0.293 HD
ENDBRANCH  23  24
ENDBRANCH   1  18
TORSDOF 5
ENDMDL
MODEL 2
REMARK VINA RESULT:    -7.439      1.726      2.593
REMARK INTER + INTRA:         -10.679
REMARK INTER:                  -9.997
REMARK INTRA:                  -0.681
REMARK UNBOUND:                -1.283
REMARK SMILES Cc1cc(C)c(N(C(=O)c2ccc(O)cc2)c2ccccn2)[nH]1
REMARK SMILES IDX 8 1 9 2 7 3 6 4 2 5 3 6 23 7 4 8 1 9 5 11 17 12 18 13 22 14
REMARK SMILES IDX 19 15 21 16 20 17 10 18 11 19 16 20 12 21 15 22 13 23 14 24
REMARK H PARENT 23 10 14 25
ROOT
ATOM      1  C   UNL     1      25.905   1.658  53.120  1.00  0.00    +0.265 C 
ATOM      2  O   UNL     1      26.122   2.332  54.129  1.00  0.00    -0.268 OA
ENDROOT
BRANCH   1   3
ATOM      3  N   UNL     1      25.017   2.008  52.089  1.00  0.00    -0.245 N 
BRANCH   3   4
ATOM      4  C   UNL     1      25.280   3.118  51.266  1.00  0.00    +0.122 A 
ATOM      5  C   UNL     1      26.406   4.315  49.708  1.00  0.00    +0.014 A 
ATOM      6  C   UNL     1      25.343   5.079  50.130  1.00  0.00    +0.028 A 
ATOM      7  N   UNL     1      26.358   3.136  50.405  1.00  0.00    -0.345 N 
ATOM      8  C   UNL     1      24.621   4.335  51.109  1.00  0.00    -0.008 A 
ATOM      9  C   UNL     1      27.472   4.592  48.715  1.00  0.00    +0.064 C 
ATOM     10  H   UNL     1      27.047   2.401  50.334  1.00  0.00    +0.168 HD
ATOM     11  C   UNL     1      23.370   4.804  51.767  1.00  0.00    +0.048 C 
ENDBRANCH   3   4
BRANCH   3  12
ATOM     12  C   UNL     1      23.693   1.446  52.036  1.00  0.00    +0.141 A 
ATOM     13  C   UNL     1      23.063   1.005  53.204  1.00  0.00    +0.048 A 
ATOM     14  N   UNL     1      23.057   1.338  50.840  1.00  0.00    -0.238 NA
ATOM     15  C   UNL     1      21.776   0.469  53.146  1.00  0.00    +0.005 A 
ATOM     16  C   UNL     1      21.809   0.822  50.806  1.00  0.00    +0.113 A 
ATOM     17  C   UNL     1      21.131   0.377  51.923  1.00  0.00    +0.020 A 
ENDBRANCH   3  12
ENDBRANCH   1   3
BRANCH   1  18
ATOM     18  C   UNL     1      26.634   0.356  53.042  1.00  0.00    +0.041 A 
ATOM     19  C   UNL     1      27.934   0.284  53.564  1.00  0.00    +0.017 A 
ATOM     20  C   UNL     1      26.033  -0.795  52.517  1.00  0.00    +0.017 A 
ATOM     21  C   UNL     1      28.643  -0.919  53.526  1.00  0.00    +0.047 A 
ATOM     22  C   UNL     1      26.744  -1.997  52.478  1.00  0.00    +0.047 A 
ATOM     23  C   UNL     1      28.040  -2.049  52.979  1.00  0.00    +0.115 A 
BRANCH  23  24
ATOM     24  O   UNL     1      28.693  -3.243  52.923  1.00  0.00    -0.508 OA
ATOM     25  H   UNL     1      28.121  -3.894  52.485  1.00  0.00    +0.293 HD
ENDBRANCH  23  24
ENDBRANCH   1  18
TORSDOF 5
ENDMDL
MODEL 3
REMARK VINA RESULT:    -7.225      2.148      3.470
REMARK INTER + INTRA:         -10.408
REMARK INTER:                  -9.617
REMARK INTRA:                  -0.791
REMARK UNBOUND:                -1.283
REMARK SMILES Cc1cc(C)c(N(C(=O)c2ccc(O)cc2)c2ccccn2)[nH]1
REMARK SMILES IDX 8 1 9 2 7 3 6 4 2 5 3 6 23 7 4 8 1 9 5 11 17 12 18 13 22 14
REMARK SMILES IDX 19 15 21 16 20 17 10 18 11 19 16 20 12 21 15 22 13 23 14 24
REMARK H PARENT 23 10 14 25
ROOT
ATOM      1  C   UNL     1      24.911   1.726  53.167  1.00  0.00    +0.265 C 
ATOM      2  O   UNL     1      24.987   2.783  53.797  1.00  0.00    -0.268 OA
ENDROOT
BRANCH   1   3
ATOM      3  N   UNL     1      23.804   1.315  52.405  1.00  0.00    -0.245 N 
BRANCH   3   4
ATOM      4  C   UNL     1      23.573   1.861  51.129  1.00  0.00    +0.122 A 
ATOM      5  C   UNL     1      22.430   2.206  49.204  1.00  0.00    +0.014 A 
ATOM      6  C   UNL     1      23.590   2.942  49.137  1.00  0.00    +0.028 A 
ATOM      7  N   UNL     1      22.435   1.555  50.411  1.00  0.00    -0.345 N 
ATOM      8  C   UNL     1      24.319   2.738  50.345  1.00  0.00    -0.008 A 
ATOM      9  C   UNL     1      21.318   2.048  48.237  1.00  0.00    +0.064 C 
ATOM     10  H   UNL     1      21.726   0.902  50.711  1.00  0.00    +0.168 HD
ATOM     11  C   UNL     1      25.607   3.409  50.674  1.00  0.00    +0.048 C 
ENDBRANCH   3   4
BRANCH   3  12
ATOM     12  C   UNL     1      22.729   0.573  53.010  1.00  0.00    +0.141 A 
ATOM     13  C   UNL     1      22.928  -0.743  53.437  1.00  0.00    +0.048 A 
ATOM     14  N   UNL     1      21.511   1.158  53.159  1.00  0.00    -0.238 NA
ATOM     15  C   UNL     1      21.884  -1.453  54.030  1.00  0.00    +0.005 A 
ATOM     16  C   UNL     1      20.514   0.455  53.741  1.00  0.00    +0.113 A 
ATOM     17  C   UNL     1      20.650  -0.843  54.190  1.00  0.00    +0.020 A 
ENDBRANCH   3  12
ENDBRANCH   1   3
BRANCH   1  18
ATOM     18  C   UNL     1      26.095   0.820  53.278  1.00  0.00    +0.041 A 
ATOM     19  C   UNL     1      27.021   1.053  54.304  1.00  0.00    +0.017 A 
ATOM     20  C   UNL     1      26.265  -0.278  52.425  1.00  0.00    +0.017 A 
ATOM     21  C   UNL     1      28.131   0.218  54.453  1.00  0.00    +0.047 A 
ATOM     22  C   UNL     1      27.377  -1.109  52.573  1.00  0.00    +0.047 A 
ATOM     23  C   UNL     1      28.300  -0.855  53.581  1.00  0.00    +0.115 A 
BRANCH  23  24
ATOM     24  O   UNL     1      29.367  -1.695  53.690  1.00  0.00    -0.508 OA
ATOM     25  H   UNL     1      29.751  -1.831  52.809  1.00  0.00    +0.293 HD
ENDBRANCH  23  24
ENDBRANCH   1  18
TORSDOF 5
ENDMDL
MODEL 4
REMARK VINA RESULT:    -7.042      1.333      2.075
REMARK INTER + INTRA:         -10.178
REMARK INTER:                  -8.909
REMARK INTRA:                  -1.269
REMARK UNBOUND:                -1.283
REMARK SMILES Cc1cc(C)c(N(C(=O)c2ccc(O)cc2)c2ccccn2)[nH]1
REMARK SMILES IDX 8 1 9 2 7 3 6 4 2 5 3 6 23 7 4 8 1 9 5 11 17 12 18 13 22 14
REMARK SMILES IDX 19 15 21 16 20 17 10 18 11 19 16 20 12 21 15 22 13 23 14 24
REMARK H PARENT 23 10 14 25
ROOT
ATOM      1  C   UNL     1      24.421   2.492  52.866  1.00  0.00    +0.265 C 
ATOM      2  O   UNL     1      24.629   3.231  53.831  1.00  0.00    -0.268 OA
ENDROOT
BRANCH   1   3
ATOM      3  N   UNL     1      23.548   2.776  51.802  1.00  0.00    -0.245 N 
BRANCH   3   4
ATOM      4  C   UNL     1      23.841   3.811  50.895  1.00  0.00    +0.122 A 
ATOM      5  C   UNL     1      24.603   5.846  50.258  1.00  0.00    +0.014 A 
ATOM      6  C   UNL     1      24.147   5.202  49.132  1.00  0.00    +0.028 A 
ATOM      7  N   UNL     1      24.408   4.997  51.316  1.00  0.00    -0.345 N 
ATOM      8  C   UNL     1      23.667   3.916  49.518  1.00  0.00    -0.008 A 
ATOM      9  C   UNL     1      25.200   7.192  50.437  1.00  0.00    +0.064 C 
ATOM     10  H   UNL     1      24.608   5.226  52.279  1.00  0.00    +0.168 HD
ATOM     11  C   UNL     1      23.140   2.896  48.569  1.00  0.00    +0.048 C 
ENDBRANCH   3   4
BRANCH   3  12
ATOM     12  C   UNL     1      22.213   2.239  51.782  1.00  0.00    +0.141 A 
ATOM     13  C   UNL     1      21.987   0.917  51.387  1.00  0.00    +0.048 A 
ATOM     14  N   UNL     1      21.167   3.027  52.144  1.00  0.00    -0.238 NA
ATOM     15  C   UNL     1      20.690   0.400  51.378  1.00  0.00    +0.005 A 
ATOM     16  C   UNL     1      19.920   2.506  52.134  1.00  0.00    +0.113 A 
ATOM     17  C   UNL     1      19.633   1.208  51.762  1.00  0.00    +0.020 A 
ENDBRANCH   3  12
ENDBRANCH   1   3
BRANCH   1  18
ATOM     18  C   UNL     1      25.144   1.184  52.885  1.00  0.00    +0.041 A 
ATOM     19  C   UNL     1      26.169   0.972  51.951  1.00  0.00    +0.017 A 
ATOM     20  C   UNL     1      24.863   0.200  53.841  1.00  0.00    +0.017 A 
ATOM     21  C   UNL     1      26.881  -0.229  51.946  1.00  0.00    +0.047 A 
ATOM     22  C   UNL     1      25.574  -1.002  53.833  1.00  0.00    +0.047 A 
ATOM     23  C   UNL     1      26.572  -1.208  52.888  1.00  0.00    +0.115 A 
BRANCH  23  24
ATOM     24  O   UNL     1      27.241  -2.394  52.922  1.00  0.00    -0.508 OA
ATOM     25  H   UNL     1      26.762  -3.009  53.502  1.00  0.00    +0.293 HD
ENDBRANCH  23  24
ENDBRANCH   1  18
TORSDOF 5
ENDMDL
MODEL 5
REMARK VINA RESULT:    -6.958      2.419      4.450
REMARK INTER + INTRA:         -10.072
REMARK INTER:                  -8.899
REMARK INTRA:                  -1.173
REMARK UNBOUND:                -1.283
REMARK SMILES Cc1cc(C)c(N(C(=O)c2ccc(O)cc2)c2ccccn2)[nH]1
REMARK SMILES IDX 8 1 9 2 7 3 6 4 2 5 3 6 23 7 4 8 1 9 5 11 17 12 18 13 22 14
REMARK SMILES IDX 19 15 21 16 20 17 10 18 11 19 16 20 12 21 15 22 13 23 14 24
REMARK H PARENT 23 10 14 25
ROOT
ATOM      1  C   UNL     1      23.330   1.643  51.193  1.00  0.00    +0.265 C 
ATOM      2  O   UNL     1      22.784   1.729  50.091  1.00  0.00    -0.268 OA
ENDROOT
BRANCH   1   3
ATOM      3  N   UNL     1      24.557   2.234  51.537  1.00  0.00    -0.245 N 
BRANCH   3   4
ATOM      4  C   UNL     1      24.996   3.399  50.881  1.00  0.00    +0.122 A 
ATOM      5  C   UNL     1      26.340   4.635  49.541  1.00  0.00    +0.014 A 
ATOM      6  C   UNL     1      25.356   5.466  50.023  1.00  0.00    +0.028 A 
ATOM      7  N   UNL     1      26.113   3.391  50.070  1.00  0.00    -0.345 N 
ATOM      8  C   UNL     1      24.499   4.700  50.867  1.00  0.00    -0.008 A 
ATOM      9  C   UNL     1      27.482   4.900  48.633  1.00  0.00    +0.064 C 
ATOM     10  H   UNL     1      26.710   2.589  49.925  1.00  0.00    +0.168 HD
ATOM     11  C   UNL     1      23.282   5.235  51.537  1.00  0.00    +0.048 C 
ENDBRANCH   3   4
BRANCH   3  12
ATOM     12  C   UNL     1      25.523   1.519  52.330  1.00  0.00    +0.141 A 
ATOM     13  C   UNL     1      25.680   1.812  53.688  1.00  0.00    +0.048 A 
ATOM     14  N   UNL     1      26.289   0.559  51.749  1.00  0.00    -0.238 NA
ATOM     15  C   UNL     1      26.612   1.109  54.453  1.00  0.00    +0.005 A 
ATOM     16  C   UNL     1      27.181  -0.114  52.509  1.00  0.00    +0.113 A 
ATOM     17  C   UNL     1      27.378   0.122  53.854  1.00  0.00    +0.020 A 
ENDBRANCH   3  12
ENDBRANCH   1   3
BRANCH   1  18
ATOM     18  C   UNL     1      22.619   0.802  52.204  1.00  0.00    +0.041 A 
ATOM     19  C   UNL     1      21.533   1.360  52.894  1.00  0.00    +0.017 A 
ATOM     20  C   UNL     1      22.973  -0.534  52.432  1.00  0.00    +0.017 A 
ATOM     21  C   UNL     1      20.830   0.602  53.833  1.00  0.00    +0.047 A 
ATOM     22  C   UNL     1      22.272  -1.289  53.375  1.00  0.00    +0.047 A 
ATOM     23  C   UNL     1      21.211  -0.717  54.067  1.00  0.00    +0.115 A 
BRANCH  23  24
ATOM     24  O   UNL     1      20.554  -1.493  54.974  1.00  0.00    -0.508 OA
ATOM     25  H   UNL     1      19.826  -1.954  54.524  1.00  0.00    +0.293 HD
ENDBRANCH  23  24
ENDBRANCH   1  18
TORSDOF 5
ENDMDL
MODEL 6
REMARK VINA RESULT:    -6.838      1.602      1.966
REMARK INTER + INTRA:          -9.920
REMARK INTER:                  -8.363
REMARK INTRA:                  -1.556
REMARK UNBOUND:                -1.283
REMARK SMILES Cc1cc(C)c(N(C(=O)c2ccc(O)cc2)c2ccccn2)[nH]1
REMARK SMILES IDX 8 1 9 2 7 3 6 4 2 5 3 6 23 7 4 8 1 9 5 11 17 12 18 13 22 14
REMARK SMILES IDX 19 15 21 16 20 17 10 18 11 19 16 20 12 21 15 22 13 23 14 24
REMARK H PARENT 23 10 14 25
ROOT
ATOM      1  C   UNL     1      23.572   3.526  52.029  1.00  0.00    +0.265 C 
ATOM      2  O   UNL     1      23.054   4.340  52.796  1.00  0.00    -0.268 OA
ENDROOT
BRANCH   1   3
ATOM      3  N   UNL     1      23.588   3.631  50.627  1.00  0.00    -0.245 N 
BRANCH   3   4
ATOM      4  C   UNL     1      24.574   4.400  49.981  1.00  0.00    +0.122 A 
ATOM      5  C   UNL     1      25.429   6.238  48.972  1.00  0.00    +0.014 A 
ATOM      6  C   UNL     1      26.414   5.277  48.989  1.00  0.00    +0.028 A 
ATOM      7  N   UNL     1      24.323   5.693  49.571  1.00  0.00    -0.345 N 
ATOM      8  C   UNL     1      25.889   4.114  49.626  1.00  0.00    -0.008 A 
ATOM      9  C   UNL     1      25.427   7.621  48.439  1.00  0.00    +0.064 C 
ATOM     10  H   UNL     1      23.431   6.158  49.655  1.00  0.00    +0.168 HD
ATOM     11  C   UNL     1      26.671   2.872  49.883  1.00  0.00    +0.048 C 
ENDBRANCH   3   4
BRANCH   3  12
ATOM     12  C   UNL     1      22.451   3.222  49.845  1.00  0.00    +0.141 A 
ATOM     13  C   UNL     1      22.359   1.915  49.359  1.00  0.00    +0.048 A 
ATOM     14  N   UNL     1      21.467   4.119  49.573  1.00  0.00    -0.238 NA
ATOM     15  C   UNL     1      21.249   1.523  48.608  1.00  0.00    +0.005 A 
ATOM     16  C   UNL     1      20.398   3.718  48.850  1.00  0.00    +0.113 A 
ATOM     17  C   UNL     1      20.244   2.441  48.349  1.00  0.00    +0.020 A 
ENDBRANCH   3  12
ENDBRANCH   1   3
BRANCH   1  18
ATOM     18  C   UNL     1      24.187   2.327  52.675  1.00  0.00    +0.041 A 
ATOM     19  C   UNL     1      25.432   2.470  53.304  1.00  0.00    +0.017 A 
ATOM     20  C   UNL     1      23.527   1.092  52.716  1.00  0.00    +0.017 A 
ATOM     21  C   UNL     1      26.032   1.379  53.936  1.00  0.00    +0.047 A 
ATOM     22  C   UNL     1      24.130   0.001  53.345  1.00  0.00    +0.047 A 
ATOM     23  C   UNL     1      25.375   0.151  53.946  1.00  0.00    +0.115 A 
BRANCH  23  24
ATOM     24  O   UNL     1      25.922  -0.940  54.551  1.00  0.00    -0.508 OA
ATOM     25  H   UNL     1      26.885  -0.822  54.602  1.00  0.00    +0.293 HD
ENDBRANCH  23  24
ENDBRANCH   1  18
TORSDOF 5
ENDMDL
MODEL 7
REMARK VINA RESULT:    -6.763      2.041      5.970
REMARK INTER + INTRA:          -9.825
REMARK INTER:                  -8.193
REMARK INTRA:                  -1.633
REMARK UNBOUND:                -1.283
REMARK SMILES Cc1cc(C)c(N(C(=O)c2ccc(O)cc2)c2ccccn2)[nH]1
REMARK SMILES IDX 8 1 9 2 7 3 6 4 2 5 3 6 23 7 4 8 1 9 5 11 17 12 18 13 22 14
REMARK SMILES IDX 19 15 21 16 20 17 10 18 11 19 16 20 12 21 15 22 13 23 14 24
REMARK H PARENT 23 10 14 25
ROOT
ATOM      1  C   UNL     1      23.945   3.584  51.855  1.00  0.00    +0.265 C 
ATOM      2  O   UNL     1      23.844   4.073  52.982  1.00  0.00    -0.268 OA
ENDROOT
BRANCH   1   3
ATOM      3  N   UNL     1      23.802   2.220  51.548  1.00  0.00    -0.245 N 
BRANCH   3   4
ATOM      4  C   UNL     1      22.616   1.742  50.960  1.00  0.00    +0.122 A 
ATOM      5  C   UNL     1      20.571   0.769  50.930  1.00  0.00    +0.014 A 
ATOM      6  C   UNL     1      20.885   1.118  49.637  1.00  0.00    +0.028 A 
ATOM      7  N   UNL     1      21.627   1.149  51.718  1.00  0.00    -0.345 N 
ATOM      8  C   UNL     1      22.170   1.736  49.642  1.00  0.00    -0.008 A 
ATOM      9  C   UNL     1      19.373   0.104  51.497  1.00  0.00    +0.064 C 
ATOM     10  H   UNL     1      21.692   0.973  52.710  1.00  0.00    +0.168 HD
ATOM     11  C   UNL     1      22.836   2.299  48.435  1.00  0.00    +0.048 C 
ENDBRANCH   3   4
BRANCH   3  12
ATOM     12  C   UNL     1      24.711   1.244  52.088  1.00  0.00    +0.141 A 
ATOM     13  C   UNL     1      26.046   1.215  51.676  1.00  0.00    +0.048 A 
ATOM     14  N   UNL     1      24.263   0.342  53.000  1.00  0.00    -0.238 NA
ATOM     15  C   UNL     1      26.925   0.271  52.210  1.00  0.00    +0.005 A 
ATOM     16  C   UNL     1      25.130  -0.560  53.510  1.00  0.00    +0.113 A 
ATOM     17  C   UNL     1      26.461  -0.635  53.150  1.00  0.00    +0.020 A 
ENDBRANCH   3  12
ENDBRANCH   1   3
BRANCH   1  18
ATOM     18  C   UNL     1      24.288   4.544  50.762  1.00  0.00    +0.041 A 
ATOM     19  C   UNL     1      25.528   4.414  50.121  1.00  0.00    +0.017 A 
ATOM     20  C   UNL     1      23.382   5.522  50.330  1.00  0.00    +0.017 A 
ATOM     21  C   UNL     1      25.879   5.280  49.083  1.00  0.00    +0.047 A 
ATOM     22  C   UNL     1      23.736   6.389  49.293  1.00  0.00    +0.047 A 
ATOM     23  C   UNL     1      24.978   6.263  48.681  1.00  0.00    +0.115 A 
BRANCH  23  24
ATOM     24  O   UNL     1      25.277   7.128  47.672  1.00  0.00    -0.508 OA
ATOM     25  H   UNL     1      26.183   6.955  47.367  1.00  0.00    +0.293 HD
ENDBRANCH  23  24
ENDBRANCH   1  18
TORSDOF 5
ENDMDL
MODEL 8
REMARK VINA RESULT:    -6.745      2.992      5.160
REMARK INTER + INTRA:          -9.802
REMARK INTER:                  -8.627
REMARK INTRA:                  -1.176
REMARK UNBOUND:                -1.283
REMARK SMILES Cc1cc(C)c(N(C(=O)c2ccc(O)cc2)c2ccccn2)[nH]1
REMARK SMILES IDX 8 1 9 2 7 3 6 4 2 5 3 6 23 7 4 8 1 9 5 11 17 12 18 13 22 14
REMARK SMILES IDX 19 15 21 16 20 17 10 18 11 19 16 20 12 21 15 22 13 23 14 24
REMARK H PARENT 23 10 14 25
ROOT
ATOM      1  C   UNL     1      20.979   2.286  52.353  1.00  0.00    +0.265 C 
ATOM      2  O   UNL     1      20.423   3.355  52.616  1.00  0.00    -0.268 OA
ENDROOT
BRANCH   1   3
ATOM      3  N   UNL     1      22.189   2.154  51.651  1.00  0.00    -0.245 N 
BRANCH   3   4
ATOM      4  C   UNL     1      23.411   2.075  52.345  1.00  0.00    +0.122 A 
ATOM      5  C   UNL     1      25.259   1.055  53.166  1.00  0.00    +0.014 A 
ATOM      6  C   UNL     1      25.318   2.380  53.531  1.00  0.00    +0.028 A 
ATOM      7  N   UNL     1      24.101   0.885  52.453  1.00  0.00    -0.345 N 
ATOM      8  C   UNL     1      24.161   3.036  53.017  1.00  0.00    -0.008 A 
ATOM      9  C   UNL     1      26.187  -0.071  53.430  1.00  0.00    +0.064 C 
ATOM     10  H   UNL     1      23.773  -0.002  52.098  1.00  0.00    +0.168 HD
ATOM     11  C   UNL     1      23.889   4.493  53.158  1.00  0.00    +0.048 C 
ENDBRANCH   3   4
BRANCH   3  12
ATOM     12  C   UNL     1      22.249   2.398  50.234  1.00  0.00    +0.141 A 
ATOM     13  C   UNL     1      21.928   1.384  49.327  1.00  0.00    +0.048 A 
ATOM     14  N   UNL     1      22.627   3.621  49.779  1.00  0.00    -0.238 NA
ATOM     15  C   UNL     1      21.980   1.630  47.954  1.00  0.00    +0.005 A 
ATOM     16  C   UNL     1      22.665   3.841  48.446  1.00  0.00    +0.113 A 
ATOM     17  C   UNL     1      22.353   2.885  47.500  1.00  0.00    +0.020 A 
ENDBRANCH   3  12
ENDBRANCH   1   3
BRANCH   1  18
ATOM     18  C   UNL     1      20.258   1.055  52.799  1.00  0.00    +0.041 A 
ATOM     19  C   UNL     1      19.091   0.679  52.118  1.00  0.00    +0.017 A 
ATOM     20  C   UNL     1      20.750   0.247  53.832  1.00  0.00    +0.017 A 
ATOM     21  C   UNL     1      18.399  -0.474  52.492  1.00  0.00    +0.047 A 
ATOM     22  C   UNL     1      20.054  -0.904  54.206  1.00  0.00    +0.047 A 
ATOM     23  C   UNL     1      18.886  -1.254  53.537  1.00  0.00    +0.115 A 
BRANCH  23  24
ATOM     24  O   UNL     1      18.244  -2.388  53.935  1.00  0.00    -0.508 OA
ATOM     25  H   UNL     1      18.776  -2.828  54.618  1.00  0.00    +0.293 HD
ENDBRANCH  23  24
ENDBRANCH   1  18
TORSDOF 5
ENDMDL
MODEL 9
REMARK VINA RESULT:    -6.422      1.878      4.481
REMARK INTER + INTRA:          -9.395
REMARK INTER:                  -8.472
REMARK INTRA:                  -0.923
REMARK UNBOUND:                -1.283
REMARK SMILES Cc1cc(C)c(N(C(=O)c2ccc(O)cc2)c2ccccn2)[nH]1
REMARK SMILES IDX 8 1 9 2 7 3 6 4 2 5 3 6 23 7 4 8 1 9 5 11 17 12 18 13 22 14
REMARK SMILES IDX 19 15 21 16 20 17 10 18 11 19 16 20 12 21 15 22 13 23 14 24
REMARK H PARENT 23 10 14 25
ROOT
ATOM      1  C   UNL     1      25.034   2.556  51.086  1.00  0.00    +0.265 C 
ATOM      2  O   UNL     1      25.680   2.832  50.072  1.00  0.00    -0.268 OA
ENDROOT
BRANCH   1   3
ATOM      3  N   UNL     1      23.716   2.971  51.344  1.00  0.00    -0.245 N 
BRANCH   3   4
ATOM      4  C   UNL     1      22.681   2.026  51.466  1.00  0.00    +0.122 A 
ATOM      5  C   UNL     1      21.215   0.698  52.569  1.00  0.00    +0.014 A 
ATOM      6  C   UNL     1      21.019   0.504  51.221  1.00  0.00    +0.028 A 
ATOM      7  N   UNL     1      22.224   1.616  52.702  1.00  0.00    -0.345 N 
ATOM      8  C   UNL     1      21.934   1.338  50.514  1.00  0.00    -0.008 A 
ATOM      9  C   UNL     1      20.548   0.095  53.748  1.00  0.00    +0.064 C 
ATOM     10  H   UNL     1      22.613   1.915  53.585  1.00  0.00    +0.168 HD
ATOM     11  C   UNL     1      21.994   1.450  49.030  1.00  0.00    +0.048 C 
ENDBRANCH   3   4
BRANCH   3  12
ATOM     12  C   UNL     1      23.335   4.351  51.190  1.00  0.00    +0.141 A 
ATOM     13  C   UNL     1      24.289   5.316  50.854  1.00  0.00    +0.048 A 
ATOM     14  N   UNL     1      22.040   4.714  51.381  1.00  0.00    -0.238 NA
ATOM     15  C   UNL     1      23.911   6.651  50.698  1.00  0.00    +0.005 A 
ATOM     16  C   UNL     1      21.693   6.010  51.219  1.00  0.00    +0.113 A 
ATOM     17  C   UNL     1      22.585   7.008  50.881  1.00  0.00    +0.020 A 
ENDBRANCH   3  12
ENDBRANCH   1   3
BRANCH   1  18
ATOM     18  C   UNL     1      25.757   1.749  52.115  1.00  0.00    +0.041 A 
ATOM     19  C   UNL     1      26.442   0.597  51.702  1.00  0.00    +0.017 A 
ATOM     20  C   UNL     1      25.814   2.147  53.457  1.00  0.00    +0.017 A 
ATOM     21  C   UNL     1      27.145  -0.175  52.630  1.00  0.00    +0.047 A 
ATOM     22  C   UNL     1      26.515   1.372  54.383  1.00  0.00    +0.047 A 
ATOM     23  C   UNL     1      27.171   0.220  53.965  1.00  0.00    +0.115 A 
BRANCH  23  24
ATOM     24  O   UNL     1      27.845  -0.502  54.904  1.00  0.00    -0.508 OA
ATOM     25  H   UNL     1      27.212  -1.059  55.386  1.00  0.00    +0.293 HD
ENDBRANCH  23  24
ENDBRANCH   1  18
TORSDOF 5
ENDMDL
