MODEL 1
REMARK VINA RESULT:    -8.386      0.000      0.000
REMARK INTER + INTRA:          -9.827
REMARK INTER:                  -9.366
REMARK INTRA:                  -0.461
REMARK UNBOUND:                -0.461
REMARK SMILES Cc1cc(-c2cccc(Br)c2)[nH]c1-c1ccccc1
REMARK SMILES IDX 5 1 6 2 7 3 8 4 9 5 10 6 11 7 4 8 2 9 3 10 13 11 12 12 1 13
REMARK SMILES IDX 14 15 15 16 19 17 16 18 18 19 17 20
REMARK H PARENT 12 14
ROOT
ATOM      1  C   UNL     1      22.387  -0.037  52.889  1.00  0.00    -0.001 A 
ATOM      2  C   UNL     1      22.171  -0.839  54.019  1.00  0.00    +0.010 A 
ATOM      3  C   UNL     1      20.883  -1.266  54.360  1.00  0.00    +0.002 A 
ATOM      4  C   UNL     1      19.795  -0.892  53.574  1.00  0.00    +0.016 A 
ATOM      5  C   UNL     1      20.000  -0.092  52.454  1.00  0.00    +0.018 A 
ATOM      6 Br   UNL     1      18.524   0.425  51.389  1.00  0.00    -0.051 Br
ATOM      7  C   UNL     1      21.284   0.337  52.108  1.00  0.00    +0.026 A 
ENDROOT
BRANCH   1   8
ATOM      8  C   UNL     1      23.741   0.400  52.544  1.00  0.00    +0.046 A 
ATOM      9  C   UNL     1      25.603   1.452  51.744  1.00  0.00    -0.025 A 
ATOM     10  C   UNL     1      24.178   1.441  51.745  1.00  0.00    +0.032 A 
ATOM     11  C   UNL     1      26.014   0.410  52.563  1.00  0.00    +0.049 A 
ATOM     12  N   UNL     1      24.876  -0.206  53.034  1.00  0.00    -0.354 N 
ATOM     13  C   UNL     1      26.462   2.402  50.990  1.00  0.00    +0.047 C 
ATOM     14  H   UNL     1      24.881  -0.975  53.690  1.00  0.00    +0.167 HD
BRANCH  11  15
ATOM     15  C   UNL     1      27.347  -0.043  52.953  1.00  0.00    -0.002 A 
ATOM     16  C   UNL     1      28.280   0.862  53.474  1.00  0.00    +0.010 A 
ATOM     17  C   UNL     1      27.709  -1.389  52.818  1.00  0.00    +0.010 A 
ATOM     18  C   UNL     1      29.552   0.428  53.855  1.00  0.00    +0.001 A 
ATOM     19  C   UNL     1      28.981  -1.823  53.198  1.00  0.00    +0.001 A 
ATOM     20  C   UNL     1      29.901  -0.914  53.717  1.00  0.00    +0.000 A 
ENDBRANCH  11  15
ENDBRANCH   1   8
TORSDOF 2
ENDMDL
MODEL 2
REMARK VINA RESULT:    -7.819      2.699      6.304
REMARK INTER + INTRA:          -9.193
REMARK INTER:                  -8.782
REMARK INTRA:                  -0.411
REMARK UNBOUND:                -0.461
REMARK SMILES Cc1cc(-c2cccc(Br)c2)[nH]c1-c1ccccc1
REMARK SMILES IDX 5 1 6 2 7 3 8 4 9 5 10 6 11 7 4 8 2 9 3 10 13 11 12 12 1 13
REMARK SMILES IDX 14 15 15 16 19 17 16 18 18 19 17 20
REMARK H PARENT 12 14
ROOT
ATOM      1  C   UNL     1      25.749   3.371  50.636  1.00  0.00    -0.001 A 
ATOM      2  C   UNL     1      26.740   3.524  49.656  1.00  0.00    +0.010 A 
ATOM      3  C   UNL     1      26.872   4.725  48.952  1.00  0.00    +0.002 A 
ATOM      4  C   UNL     1      26.010   5.787  49.218  1.00  0.00    +0.016 A 
ATOM      5  C   UNL     1      25.020   5.640  50.186  1.00  0.00    +0.018 A 
ATOM      6 Br   UNL     1      23.842   7.077  50.544  1.00  0.00    -0.051 Br
ATOM      7  C   UNL     1      24.884   4.443  50.893  1.00  0.00    +0.026 A 
ENDROOT
BRANCH   1   8
ATOM      8  C   UNL     1      25.625   2.107  51.366  1.00  0.00    +0.046 A 
ATOM      9  C   UNL     1      25.938   0.096  52.400  1.00  0.00    -0.025 A 
ATOM     10  C   UNL     1      26.561   1.127  51.639  1.00  0.00    +0.032 A 
ATOM     11  C   UNL     1      24.618   0.479  52.590  1.00  0.00    +0.049 A 
ATOM     12  N   UNL     1      24.455   1.692  51.961  1.00  0.00    -0.354 N 
ATOM     13  C   UNL     1      26.597  -1.148  52.878  1.00  0.00    +0.047 C 
ATOM     14  H   UNL     1      23.596   2.224  51.976  1.00  0.00    +0.167 HD
BRANCH  11  15
ATOM     15  C   UNL     1      23.520  -0.166  53.308  1.00  0.00    -0.002 A 
ATOM     16  C   UNL     1      23.737  -0.751  54.561  1.00  0.00    +0.010 A 
ATOM     17  C   UNL     1      22.234  -0.201  52.756  1.00  0.00    +0.010 A 
ATOM     18  C   UNL     1      22.687  -1.359  55.252  1.00  0.00    +0.001 A 
ATOM     19  C   UNL     1      21.182  -0.811  53.446  1.00  0.00    +0.001 A 
ATOM     20  C   UNL     1      21.410  -1.388  54.694  1.00  0.00    +0.000 A 
ENDBRANCH  11  15
ENDBRANCH   1   8
TORSDOF 2
ENDMDL
MODEL 3
REMARK VINA RESULT:    -7.781      3.207      4.970
REMARK INTER + INTRA:          -9.152
REMARK INTER:                  -8.611
REMARK INTRA:                  -0.540
REMARK UNBOUND:                -0.461
REMARK SMILES Cc1cc(-c2cccc(Br)c2)[nH]c1-c1ccccc1
REMARK SMILES IDX 5 1 6 2 7 3 8 4 9 5 10 6 11 7 4 8 2 9 3 10 13 11 12 12 1 13
REMARK SMILES IDX 14 15 15 16 19 17 16 18 18 19 17 20
REMARK H PARENT 12 14
ROOT
ATOM      1  C   UNL     1      24.725   3.205  50.461  1.00  0.00    -0.001 A 
ATOM      2  C   UNL     1      23.438   3.466  49.969  1.00  0.00    +0.010 A 
ATOM      3  C   UNL     1      23.213   4.518  49.075  1.00  0.00    +0.002 A 
ATOM      4  C   UNL     1      24.273   5.322  48.664  1.00  0.00    +0.016 A 
ATOM      5  C   UNL     1      25.553   5.072  49.153  1.00  0.00    +0.018 A 
ATOM      6 Br   UNL     1      26.995   6.168  48.605  1.00  0.00    -0.051 Br
ATOM      7  C   UNL     1      25.784   4.023  50.046  1.00  0.00    +0.026 A 
ENDROOT
BRANCH   1   8
ATOM      8  C   UNL     1      24.945   2.098  51.395  1.00  0.00    +0.046 A 
ATOM      9  C   UNL     1      24.780   0.427  52.941  1.00  0.00    -0.025 A 
ATOM     10  C   UNL     1      24.071   1.452  52.251  1.00  0.00    +0.032 A 
ATOM     11  C   UNL     1      26.087   0.459  52.479  1.00  0.00    +0.049 A 
ATOM     12  N   UNL     1      26.161   1.471  51.548  1.00  0.00    -0.354 N 
ATOM     13  C   UNL     1      24.205  -0.484  53.967  1.00  0.00    +0.047 C 
ATOM     14  H   UNL     1      26.992   1.691  51.018  1.00  0.00    +0.167 HD
BRANCH  11  15
ATOM     15  C   UNL     1      27.248  -0.365  52.807  1.00  0.00    -0.002 A 
ATOM     16  C   UNL     1      28.403   0.216  53.344  1.00  0.00    +0.010 A 
ATOM     17  C   UNL     1      27.219  -1.749  52.598  1.00  0.00    +0.010 A 
ATOM     18  C   UNL     1      29.510  -0.572  53.667  1.00  0.00    +0.001 A 
ATOM     19  C   UNL     1      28.326  -2.539  52.920  1.00  0.00    +0.001 A 
ATOM     20  C   UNL     1      29.470  -1.949  53.455  1.00  0.00    +0.000 A 
ENDBRANCH  11  15
ENDBRANCH   1   8
TORSDOF 2
ENDMDL
MODEL 4
REMARK VINA RESULT:    -7.771      3.365      6.648
REMARK INTER + INTRA:          -9.140
REMARK INTER:                  -8.845
REMARK INTRA:                  -0.295
REMARK UNBOUND:                -0.461
REMARK SMILES Cc1cc(-c2cccc(Br)c2)[nH]c1-c1ccccc1
REMARK SMILES IDX 5 1 6 2 7 3 8 4 9 5 10 6 11 7 4 8 2 9 3 10 13 11 12 12 1 13
REMARK SMILES IDX 14 15 15 16 19 17 16 18 18 19 17 20
REMARK H PARENT 12 14
ROOT
ATOM      1  C   UNL     1      25.611   3.503  50.254  1.00  0.00    -0.001 A 
ATOM      2  C   UNL     1      24.455   4.245  49.971  1.00  0.00    +0.010 A 
ATOM      3  C   UNL     1      24.519   5.402  49.189  1.00  0.00    +0.002 A 
ATOM      4  C   UNL     1      25.743   5.833  48.682  1.00  0.00    +0.016 A 
ATOM      5  C   UNL     1      26.897   5.106  48.964  1.00  0.00    +0.018 A 
ATOM      6 Br   UNL     1      28.562   5.693  48.285  1.00  0.00    -0.051 Br
ATOM      7  C   UNL     1      26.838   3.949  49.744  1.00  0.00    +0.026 A 
ENDROOT
BRANCH   1   8
ATOM      8  C   UNL     1      25.527   2.292  51.073  1.00  0.00    +0.046 A 
ATOM      9  C   UNL     1      25.906   0.382  52.264  1.00  0.00    -0.025 A 
ATOM     10  C   UNL     1      26.502   1.386  51.447  1.00  0.00    +0.032 A 
ATOM     11  C   UNL     1      24.562   0.706  52.384  1.00  0.00    +0.049 A 
ATOM     12  N   UNL     1      24.359   1.859  51.661  1.00  0.00    -0.354 N 
ATOM     13  C   UNL     1      26.610  -0.787  52.854  1.00  0.00    +0.047 C 
ATOM     14  H   UNL     1      23.474   2.345  51.609  1.00  0.00    +0.167 HD
BRANCH  11  15
ATOM     15  C   UNL     1      23.475   0.058  53.113  1.00  0.00    -0.002 A 
ATOM     16  C   UNL     1      22.164   0.102  52.622  1.00  0.00    +0.010 A 
ATOM     17  C   UNL     1      23.728  -0.624  54.310  1.00  0.00    +0.010 A 
ATOM     18  C   UNL     1      21.126  -0.525  53.314  1.00  0.00    +0.001 A 
ATOM     19  C   UNL     1      22.689  -1.250  55.004  1.00  0.00    +0.001 A 
ATOM     20  C   UNL     1      21.389  -1.201  54.504  1.00  0.00    +0.000 A 
ENDBRANCH  11  15
ENDBRANCH   1   8
TORSDOF 2
ENDMDL
MODEL 5
REMARK VINA RESULT:    -7.748      3.105      5.401
REMARK INTER + INTRA:          -9.115
REMARK INTER:                  -8.658
REMARK INTRA:                  -0.457
REMARK UNBOUND:                -0.461
REMARK SMILES Cc1cc(-c2cccc(Br)c2)[nH]c1-c1ccccc1
REMARK SMILES IDX 5 1 6 2 7 3 8 4 9 5 10 6 11 7 4 8 2 9 3 10 13 11 12 12 1 13
REMARK SMILES IDX 14 15 15 16 19 17 16 18 18 19 17 20
REMARK H PARENT 12 14
ROOT
ATOM      1  C   UNL     1      24.254   0.978  52.362  1.00  0.00    -0.001 A 
ATOM      2  C   UNL     1      25.492   0.625  52.917  1.00  0.00    +0.010 A 
ATOM      3  C   UNL     1      25.570  -0.277  53.982  1.00  0.00    +0.002 A 
ATOM      4  C   UNL     1      24.407  -0.836  54.507  1.00  0.00    +0.016 A 
ATOM      5  C   UNL     1      23.173  -0.487  53.965  1.00  0.00    +0.018 A 
ATOM      6 Br   UNL     1      21.590  -1.237  54.682  1.00  0.00    -0.051 Br
ATOM      7  C   UNL     1      23.089   0.414  52.901  1.00  0.00    +0.026 A 
ENDROOT
BRANCH   1   8
ATOM      8  C   UNL     1      24.189   1.922  51.245  1.00  0.00    +0.046 A 
ATOM      9  C   UNL     1      23.607   3.211  49.453  1.00  0.00    -0.025 A 
ATOM     10  C   UNL     1      23.174   2.188  50.344  1.00  0.00    +0.032 A 
ATOM     11  C   UNL     1      24.892   3.564  49.839  1.00  0.00    +0.049 A 
ATOM     12  N   UNL     1      25.219   2.777  50.920  1.00  0.00    -0.354 N 
ATOM     13  C   UNL     1      22.817   3.770  48.323  1.00  0.00    +0.047 C 
ATOM     14  H   UNL     1      26.087   2.853  51.431  1.00  0.00    +0.167 HD
BRANCH  11  15
ATOM     15  C   UNL     1      25.819   4.564  49.311  1.00  0.00    -0.002 A 
ATOM     16  C   UNL     1      25.405   5.889  49.128  1.00  0.00    +0.010 A 
ATOM     17  C   UNL     1      27.135   4.213  48.989  1.00  0.00    +0.010 A 
ATOM     18  C   UNL     1      26.293   6.846  48.632  1.00  0.00    +0.001 A 
ATOM     19  C   UNL     1      28.023   5.170  48.492  1.00  0.00    +0.001 A 
ATOM     20  C   UNL     1      27.601   6.487  48.315  1.00  0.00    +0.000 A 
ENDBRANCH  11  15
ENDBRANCH   1   8
TORSDOF 2
ENDMDL
MODEL 6
REMARK VINA RESULT:    -7.700      4.198      6.969
REMARK INTER + INTRA:          -9.061
REMARK INTER:                  -8.562
REMARK INTRA:                  -0.500
REMARK UNBOUND:                -0.461
REMARK SMILES Cc1cc(-c2cccc(Br)c2)[nH]c1-c1ccccc1
REMARK SMILES IDX 5 1 6 2 7 3 8 4 9 5 10 6 11 7 4 8 2 9 3 10 13 11 12 12 1 13
REMARK SMILES IDX 14 15 15 16 19 17 16 18 18 19 17 20
REMARK H PARENT 12 14
ROOT
ATOM      1  C   UNL     1      24.890   3.899  49.458  1.00  0.00    -0.001 A 
ATOM      2  C   UNL     1      26.232   3.492  49.469  1.00  0.00    +0.010 A 
ATOM      3  C   UNL     1      27.250   4.370  49.086  1.00  0.00    +0.002 A 
ATOM      4  C   UNL     1      26.937   5.667  48.684  1.00  0.00    +0.016 A 
ATOM      5  C   UNL     1      25.606   6.076  48.665  1.00  0.00    +0.018 A 
ATOM      6 Br   UNL     1      25.177   7.833  48.111  1.00  0.00    -0.051 Br
ATOM      7  C   UNL     1      24.585   5.204  49.047  1.00  0.00    +0.026 A 
ENDROOT
BRANCH   1   8
ATOM      8  C   UNL     1      23.835   2.968  49.865  1.00  0.00    +0.046 A 
ATOM      9  C   UNL     1      22.030   1.577  50.009  1.00  0.00    -0.025 A 
ATOM     10  C   UNL     1      22.756   2.463  49.162  1.00  0.00    +0.032 A 
ATOM     11  C   UNL     1      22.696   1.549  51.226  1.00  0.00    +0.049 A 
ATOM     12  N   UNL     1      23.778   2.391  51.114  1.00  0.00    -0.354 N 
ATOM     13  C   UNL     1      20.791   0.843  49.638  1.00  0.00    +0.047 C 
ATOM     14  H   UNL     1      24.464   2.529  51.843  1.00  0.00    +0.167 HD
BRANCH  11  15
ATOM     15  C   UNL     1      22.427   0.806  52.456  1.00  0.00    -0.002 A 
ATOM     16  C   UNL     1      23.372  -0.094  52.963  1.00  0.00    +0.010 A 
ATOM     17  C   UNL     1      21.225   0.991  53.149  1.00  0.00    +0.010 A 
ATOM     18  C   UNL     1      23.119  -0.797  54.143  1.00  0.00    +0.001 A 
ATOM     19  C   UNL     1      20.971   0.287  54.330  1.00  0.00    +0.001 A 
ATOM     20  C   UNL     1      21.920  -0.606  54.826  1.00  0.00    +0.000 A 
ENDBRANCH  11  15
ENDBRANCH   1   8
TORSDOF 2
ENDMDL
MODEL 7
REMARK VINA RESULT:    -7.683      2.992      7.320
REMARK INTER + INTRA:          -9.042
REMARK INTER:                  -8.791
REMARK INTRA:                  -0.251
REMARK UNBOUND:                -0.461
REMARK SMILES Cc1cc(-c2cccc(Br)c2)[nH]c1-c1ccccc1
REMARK SMILES IDX 5 1 6 2 7 3 8 4 9 5 10 6 11 7 4 8 2 9 3 10 13 11 12 12 1 13
REMARK SMILES IDX 14 15 15 16 19 17 16 18 18 19 17 20
REMARK H PARENT 12 14
ROOT
ATOM      1  C   UNL     1      26.070   0.454  53.495  1.00  0.00    -0.001 A 
ATOM      2  C   UNL     1      26.403   1.816  53.515  1.00  0.00    +0.010 A 
ATOM      3  C   UNL     1      27.739   2.227  53.535  1.00  0.00    +0.002 A 
ATOM      4  C   UNL     1      28.760   1.279  53.537  1.00  0.00    +0.016 A 
ATOM      5  C   UNL     1      28.438  -0.075  53.524  1.00  0.00    +0.018 A 
ATOM      6 Br   UNL     1      29.821  -1.366  53.537  1.00  0.00    -0.051 Br
ATOM      7  C   UNL     1      27.105  -0.492  53.504  1.00  0.00    +0.026 A 
ENDROOT
BRANCH   1   8
ATOM      8  C   UNL     1      24.666   0.040  53.473  1.00  0.00    +0.046 A 
ATOM      9  C   UNL     1      22.608  -0.868  53.866  1.00  0.00    -0.025 A 
ATOM     10  C   UNL     1      23.960  -0.803  54.312  1.00  0.00    +0.032 A 
ATOM     11  C   UNL     1      22.511  -0.043  52.755  1.00  0.00    +0.049 A 
ATOM     12  N   UNL     1      23.761   0.493  52.540  1.00  0.00    -0.354 N 
ATOM     13  C   UNL     1      21.529  -1.682  54.485  1.00  0.00    +0.047 C 
ATOM     14  H   UNL     1      23.969   1.166  51.815  1.00  0.00    +0.167 HD
BRANCH  11  15
ATOM     15  C   UNL     1      21.375   0.299  51.902  1.00  0.00    -0.002 A 
ATOM     16  C   UNL     1      21.573   0.660  50.564  1.00  0.00    +0.010 A 
ATOM     17  C   UNL     1      20.070   0.262  52.409  1.00  0.00    +0.010 A 
ATOM     18  C   UNL     1      20.487   0.977  49.746  1.00  0.00    +0.001 A 
ATOM     19  C   UNL     1      18.982   0.580  51.591  1.00  0.00    +0.001 A 
ATOM     20  C   UNL     1      19.192   0.936  50.260  1.00  0.00    +0.000 A 
ENDBRANCH  11  15
ENDBRANCH   1   8
TORSDOF 2
ENDMDL
MODEL 8
REMARK VINA RESULT:    -7.666      3.840      5.158
REMARK INTER + INTRA:          -9.023
REMARK INTER:                  -8.479
REMARK INTRA:                  -0.544
REMARK UNBOUND:                -0.461
REMARK SMILES Cc1cc(-c2cccc(Br)c2)[nH]c1-c1ccccc1
REMARK SMILES IDX 5 1 6 2 7 3 8 4 9 5 10 6 11 7 4 8 2 9 3 10 13 11 12 12 1 13
REMARK SMILES IDX 14 15 15 16 19 17 16 18 18 19 17 20
REMARK H PARENT 12 14
ROOT
ATOM      1  C   UNL     1      22.203   0.397  52.333  1.00  0.00    -0.001 A 
ATOM      2  C   UNL     1      20.880   0.030  52.613  1.00  0.00    +0.010 A 
ATOM      3  C   UNL     1      20.568  -0.707  53.760  1.00  0.00    +0.002 A 
ATOM      4  C   UNL     1      21.579  -1.088  54.640  1.00  0.00    +0.016 A 
ATOM      5  C   UNL     1      22.897  -0.731  54.365  1.00  0.00    +0.018 A 
ATOM      6 Br   UNL     1      24.275  -1.253  55.552  1.00  0.00    -0.051 Br
ATOM      7  C   UNL     1      23.214   0.005  53.221  1.00  0.00    +0.026 A 
ENDROOT
BRANCH   1   8
ATOM      8  C   UNL     1      22.513   1.171  51.128  1.00  0.00    +0.046 A 
ATOM      9  C   UNL     1      22.567   2.150  49.067  1.00  0.00    -0.025 A 
ATOM     10  C   UNL     1      21.875   1.227  49.903  1.00  0.00    +0.032 A 
ATOM     11  C   UNL     1      23.622   2.655  49.812  1.00  0.00    +0.049 A 
ATOM     12  N   UNL     1      23.567   2.053  51.049  1.00  0.00    -0.354 N 
ATOM     13  C   UNL     1      22.212   2.482  47.661  1.00  0.00    +0.047 C 
ATOM     14  H   UNL     1      24.196   2.268  51.810  1.00  0.00    +0.167 HD
BRANCH  11  15
ATOM     15  C   UNL     1      24.648   3.644  49.487  1.00  0.00    -0.002 A 
ATOM     16  C   UNL     1      26.003   3.292  49.502  1.00  0.00    +0.010 A 
ATOM     17  C   UNL     1      24.290   4.954  49.148  1.00  0.00    +0.010 A 
ATOM     18  C   UNL     1      26.983   4.235  49.181  1.00  0.00    +0.001 A 
ATOM     19  C   UNL     1      25.270   5.897  48.829  1.00  0.00    +0.001 A 
ATOM     20  C   UNL     1      26.616   5.536  48.845  1.00  0.00    +0.000 A 
ENDBRANCH  11  15
ENDBRANCH   1   8
TORSDOF 2
ENDMDL
MODEL 9
REMARK VINA RESULT:    -7.590      2.287      3.367
REMARK INTER + INTRA:          -8.939
REMARK INTER:                  -8.331
REMARK INTRA:                  -0.608
REMARK UNBOUND:                -0.461
REMARK SMILES Cc1cc(-c2cccc(Br)c2)[nH]c1-c1ccccc1
REMARK SMILES IDX 5 1 6 2 7 3 8 4 9 5 10 6 11 7 4 8 2 9 3 10 13 11 12 12 1 13
REMARK SMILES IDX 14 15 15 16 19 17 16 18 18 19 17 20
REMARK H PARENT 12 14
ROOT
ATOM      1  C   UNL     1      22.616   1.218  51.176  1.00  0.00    -0.001 A 
ATOM      2  C   UNL     1      21.376   0.671  50.820  1.00  0.00    +0.010 A 
ATOM      3  C   UNL     1      20.605   1.242  49.803  1.00  0.00    +0.002 A 
ATOM      4  C   UNL     1      21.067   2.372  49.131  1.00  0.00    +0.016 A 
ATOM      5  C   UNL     1      22.295   2.925  49.482  1.00  0.00    +0.018 A 
ATOM      6 Br   UNL     1      22.922   4.464  48.578  1.00  0.00    -0.051 Br
ATOM      7  C   UNL     1      23.069   2.357  50.497  1.00  0.00    +0.026 A 
ENDROOT
BRANCH   1   8
ATOM      8  C   UNL     1      23.412   0.606  52.242  1.00  0.00    +0.046 A 
ATOM      9  C   UNL     1      24.189  -0.475  54.097  1.00  0.00    -0.025 A 
ATOM     10  C   UNL     1      23.024  -0.057  53.392  1.00  0.00    +0.032 A 
ATOM     11  C   UNL     1      25.281  -0.065  53.347  1.00  0.00    +0.049 A 
ATOM     12  N   UNL     1      24.789   0.581  52.236  1.00  0.00    -0.354 N 
ATOM     13  C   UNL     1      24.204  -1.203  55.394  1.00  0.00    +0.047 C 
ATOM     14  H   UNL     1      25.368   0.948  51.493  1.00  0.00    +0.167 HD
BRANCH  11  15
ATOM     15  C   UNL     1      26.717  -0.234  53.561  1.00  0.00    -0.002 A 
ATOM     16  C   UNL     1      27.436   0.694  54.325  1.00  0.00    +0.010 A 
ATOM     17  C   UNL     1      27.394  -1.330  53.013  1.00  0.00    +0.010 A 
ATOM     18  C   UNL     1      28.806   0.528  54.537  1.00  0.00    +0.001 A 
ATOM     19  C   UNL     1      28.765  -1.496  53.224  1.00  0.00    +0.001 A 
ATOM     20  C   UNL     1      29.469  -0.567  53.988  1.00  0.00    +0.000 A 
ENDBRANCH  11  15
ENDBRANCH   1   8
TORSDOF 2
ENDMDL
