REMARK SMILES C[N+](C)(C)C[C@H](O)CO[C@H]1CCCC[C@@H]1c1nc2ccccc2s1
REMARK SMILES IDX 6 1 5 2 2 3 1 4 3 5 4 6 7 7 8 9 9 10 10 11 11 12 15 13 12 14
REMARK SMILES IDX 14 15 13 16 16 17 17 18 24 19 18 20 23 21 19 22 22 23 20 24
REMARK SMILES IDX 21 25
REMARK H PARENT 7 8
ROOT
ATOM      1  C   UNL     1      -2.173   0.096  -1.606  1.00  0.00    +0.195 C 
ENDROOT
BRANCH   1   2
ATOM      2  C   UNL     1      -3.392  -0.325  -0.748  1.00  0.00    +0.297 C 
BRANCH   2   3
ATOM      3  N   UNL     1      -4.400   0.819  -0.424  1.00  0.00    -0.329 N 
ATOM      4  C   UNL     1      -3.756   1.890   0.442  1.00  0.00    +0.334 C 
ATOM      5  C   UNL     1      -4.960   1.450  -1.694  1.00  0.00    +0.334 C 
ATOM      6  C   UNL     1      -5.561   0.197   0.355  1.00  0.00    +0.334 C 
ENDBRANCH   2   3
ENDBRANCH   1   2
BRANCH   1   7
ATOM      7  O   UNL     1      -2.596   0.459  -2.923  1.00  0.00    -0.385 OA
ATOM      8  H   UNL     1      -1.801   0.641  -3.462  1.00  0.00    +0.211 HD
ENDBRANCH   1   7
BRANCH   1   9
ATOM      9  C   UNL     1      -1.175  -1.073  -1.688  1.00  0.00    +0.198 C 
BRANCH   9  10
ATOM     10  O   UNL     1      -0.753  -1.465  -0.385  1.00  0.00    -0.375 OA
BRANCH  10  11
ATOM     11  C   UNL     1       0.398  -0.740   0.103  1.00  0.00    +0.128 C 
ATOM     12  C   UNL     1       0.205  -0.588   1.620  1.00  0.00    +0.033 C 
ATOM     13  C   UNL     1       1.691  -1.500  -0.281  1.00  0.00    +0.078 C 
ATOM     14  C   UNL     1       0.374  -1.904   2.373  1.00  0.00    +0.003 C 
ATOM     15  C   UNL     1       1.866  -2.785   0.548  1.00  0.00    +0.013 C 
ATOM     16  C   UNL     1       1.710  -2.559   2.050  1.00  0.00    +0.001 C 
BRANCH  13  17
ATOM     17  C   UNL     1       2.903  -0.601  -0.197  1.00  0.00    +0.099 A 
ATOM     18  N   UNL     1       2.966   0.502   0.517  1.00  0.00    -0.241 NA
ATOM     19  S   UNL     1       4.312  -0.963  -1.117  1.00  0.00    -0.118 S 
ATOM     20  C   UNL     1       4.216   1.088   0.384  1.00  0.00    +0.082 A 
ATOM     21  C   UNL     1       5.095   0.428  -0.476  1.00  0.00    +0.055 A 
ATOM     22  C   UNL     1       4.649   2.266   1.026  1.00  0.00    +0.030 A 
ATOM     23  C   UNL     1       6.395   0.904  -0.717  1.00  0.00    +0.021 A 
ATOM     24  C   UNL     1       5.942   2.748   0.794  1.00  0.00    +0.002 A 
ATOM     25  C   UNL     1       6.802   2.073  -0.067  1.00  0.00    +0.002 A 
ENDBRANCH  13  17
ENDBRANCH  10  11
ENDBRANCH   9  10
ENDBRANCH   1   9
TORSDOF 7
