MODEL 1
REMARK VINA RESULT:    -8.452      0.000      0.000
REMARK INTER + INTRA:         -11.246
REMARK INTER:                 -10.428
REMARK INTRA:                  -0.818
REMARK UNBOUND:                -0.818
REMARK SMILES Cc1cc(-c2ccc(O)c([N+](=O)[O-])c2)[nH]c1-c1ccc(O)cc1
REMARK SMILES IDX 1 1 2 2 3 3 4 4 15 5 16 6 17 8 18 9 23 10 19 11 22 12 20 13
REMARK SMILES IDX 21 14 5 16 6 17 14 18 7 19 10 20 8 21 11 22 12 23 13 24 9 25
REMARK H PARENT 15 7 21 15 9 26
ROOT
ATOM      1  C   UNL     1      22.610   3.219  48.667  1.00  0.00    +0.047 C 
ATOM      2  C   UNL     1      23.481   2.793  49.797  1.00  0.00    -0.025 A 
ATOM      3  C   UNL     1      23.166   1.788  50.755  1.00  0.00    +0.032 A 
ATOM      4  C   UNL     1      24.221   1.674  51.644  1.00  0.00    +0.046 A 
ATOM      5  N   UNL     1      25.168   2.582  51.228  1.00  0.00    -0.354 N 
ATOM      6  C   UNL     1      24.742   3.274  50.117  1.00  0.00    +0.049 A 
ATOM      7  H   UNL     1      26.063   2.730  51.674  1.00  0.00    +0.167 HD
ENDROOT
BRANCH   6   8
ATOM      8  C   UNL     1      25.564   4.311  49.495  1.00  0.00    -0.002 A 
ATOM      9  C   UNL     1      25.015   5.560  49.185  1.00  0.00    +0.014 A 
ATOM     10  C   UNL     1      26.915   4.070  49.208  1.00  0.00    +0.014 A 
ATOM     11  C   UNL     1      25.803   6.553  48.599  1.00  0.00    +0.047 A 
ATOM     12  C   UNL     1      27.705   5.062  48.620  1.00  0.00    +0.047 A 
ATOM     13  C   UNL     1      27.139   6.297  48.321  1.00  0.00    +0.115 A 
BRANCH  13  14
ATOM     14  O   UNL     1      27.871   7.294  47.747  1.00  0.00    -0.508 OA
ATOM     15  H   UNL     1      28.811   7.055  47.793  1.00  0.00    +0.293 HD
ENDBRANCH  13  14
ENDBRANCH   6   8
BRANCH   4  16
ATOM     16  C   UNL     1      24.402   0.794  52.798  1.00  0.00    +0.005 A 
ATOM     17  C   UNL     1      23.330   0.020  53.271  1.00  0.00    +0.014 A 
ATOM     18  C   UNL     1      25.634   0.707  53.454  1.00  0.00    +0.100 A 
ATOM     19  C   UNL     1      23.481  -0.839  54.369  1.00  0.00    +0.054 A 
ATOM     20  C   UNL     1      25.771  -0.148  54.557  1.00  0.00    +0.311 A 
ATOM     21  C   UNL     1      24.710  -0.929  55.014  1.00  0.00    +0.194 A 
BRANCH  20  22
ATOM     22  N   UNL     1      27.060  -0.204  55.215  1.00  0.00    +0.066 N 
ATOM     23  O   UNL     1      28.027  -0.606  54.554  1.00  0.00    -0.258 OA
ATOM     24  O   UNL     1      27.085   0.097  56.418  1.00  0.00    -0.258 OA
ENDBRANCH  20  22
BRANCH  21  25
ATOM     25  O   UNL     1      24.870  -1.790  56.059  1.00  0.00    -0.502 OA
ATOM     26  H   UNL     1      24.062  -2.318  56.179  1.00  0.00    +0.293 HD
ENDBRANCH  21  25
ENDBRANCH   4  16
TORSDOF 5
ENDMDL
MODEL 2
REMARK VINA RESULT:    -8.151      4.201      6.012
REMARK INTER + INTRA:         -10.875
REMARK INTER:                 -10.652
REMARK INTRA:                  -0.223
REMARK UNBOUND:                -0.818
REMARK SMILES Cc1cc(-c2ccc(O)c([N+](=O)[O-])c2)[nH]c1-c1ccc(O)cc1
REMARK SMILES IDX 1 1 2 2 3 3 4 4 15 5 16 6 17 8 18 9 23 10 19 11 22 12 20 13
REMARK SMILES IDX 21 14 5 16 6 17 14 18 7 19 10 20 8 21 11 22 12 23 13 24 9 25
REMARK H PARENT 15 7 21 15 9 26
ROOT
ATOM      1  C   UNL     1      21.129  -1.588  54.342  1.00  0.00    +0.047 C 
ATOM      2  C   UNL     1      22.277  -0.857  53.740  1.00  0.00    -0.025 A 
ATOM      3  C   UNL     1      23.617  -0.872  54.222  1.00  0.00    +0.032 A 
ATOM      4  C   UNL     1      24.396  -0.078  53.398  1.00  0.00    +0.046 A 
ATOM      5  N   UNL     1      23.550   0.402  52.423  1.00  0.00    -0.354 N 
ATOM      6  C   UNL     1      22.264  -0.051  52.611  1.00  0.00    +0.049 A 
ATOM      7  H   UNL     1      23.828   1.009  51.665  1.00  0.00    +0.167 HD
ENDROOT
BRANCH   6   8
ATOM      8  C   UNL     1      21.175   0.336  51.716  1.00  0.00    -0.002 A 
ATOM      9  C   UNL     1      21.446   0.744  50.405  1.00  0.00    +0.014 A 
ATOM     10  C   UNL     1      19.844   0.296  52.156  1.00  0.00    +0.014 A 
ATOM     11  C   UNL     1      20.404   1.105  49.547  1.00  0.00    +0.047 A 
ATOM     12  C   UNL     1      18.801   0.659  51.300  1.00  0.00    +0.047 A 
ATOM     13  C   UNL     1      19.092   1.060  50.000  1.00  0.00    +0.115 A 
BRANCH  13  14
ATOM     14  O   UNL     1      18.107   1.423  49.131  1.00  0.00    -0.508 OA
ATOM     15  H   UNL     1      18.518   1.771  48.322  1.00  0.00    +0.293 HD
ENDBRANCH  13  14
ENDBRANCH   6   8
BRANCH   4  16
ATOM     16  C   UNL     1      25.824   0.233  53.449  1.00  0.00    +0.005 A 
ATOM     17  C   UNL     1      26.254   1.570  53.486  1.00  0.00    +0.014 A 
ATOM     18  C   UNL     1      26.785  -0.782  53.456  1.00  0.00    +0.100 A 
ATOM     19  C   UNL     1      27.617   1.894  53.545  1.00  0.00    +0.054 A 
ATOM     20  C   UNL     1      28.146  -0.446  53.506  1.00  0.00    +0.311 A 
ATOM     21  C   UNL     1      28.571   0.881  53.561  1.00  0.00    +0.194 A 
BRANCH  20  22
ATOM     22  N   UNL     1      29.111  -1.526  53.504  1.00  0.00    +0.066 N 
ATOM     23  O   UNL     1      28.718  -2.649  53.163  1.00  0.00    -0.258 OA
ATOM     24  O   UNL     1      30.252  -1.253  53.908  1.00  0.00    -0.258 OA
ENDBRANCH  20  22
BRANCH  21  25
ATOM     25  O   UNL     1      29.894   1.193  53.655  1.00  0.00    -0.502 OA
ATOM     26  H   UNL     1      30.412   0.618  53.068  1.00  0.00    +0.293 HD
ENDBRANCH  21  25
ENDBRANCH   4  16
TORSDOF 5
ENDMDL
MODEL 3
REMARK VINA RESULT:    -8.106      1.745      2.701
REMARK INTER + INTRA:         -10.820
REMARK INTER:                  -9.998
REMARK INTRA:                  -0.822
REMARK UNBOUND:                -0.818
REMARK SMILES Cc1cc(-c2ccc(O)c([N+](=O)[O-])c2)[nH]c1-c1ccc(O)cc1
REMARK SMILES IDX 1 1 2 2 3 3 4 4 15 5 16 6 17 8 18 9 23 10 19 11 22 12 20 13
REMARK SMILES IDX 21 14 5 16 6 17 14 18 7 19 10 20 8 21 11 22 12 23 13 24 9 25
REMARK H PARENT 15 7 21 15 9 26
ROOT
ATOM      1  C   UNL     1      22.778   3.384  48.183  1.00  0.00    +0.047 C 
ATOM      2  C   UNL     1      23.496   2.914  49.400  1.00  0.00    -0.025 A 
ATOM      3  C   UNL     1      23.036   1.913  50.302  1.00  0.00    +0.032 A 
ATOM      4  C   UNL     1      23.976   1.750  51.304  1.00  0.00    +0.046 A 
ATOM      5  N   UNL     1      24.999   2.625  51.012  1.00  0.00    -0.354 N 
ATOM      6  C   UNL     1      24.729   3.343  49.869  1.00  0.00    +0.049 A 
ATOM      7  H   UNL     1      25.841   2.734  51.560  1.00  0.00    +0.167 HD
ENDROOT
BRANCH   6   8
ATOM      8  C   UNL     1      25.656   4.352  49.360  1.00  0.00    -0.002 A 
ATOM      9  C   UNL     1      26.985   4.018  49.082  1.00  0.00    +0.014 A 
ATOM     10  C   UNL     1      25.222   5.667  49.136  1.00  0.00    +0.014 A 
ATOM     11  C   UNL     1      27.868   4.980  48.586  1.00  0.00    +0.047 A 
ATOM     12  C   UNL     1      26.105   6.632  48.643  1.00  0.00    +0.047 A 
ATOM     13  C   UNL     1      27.422   6.278  48.372  1.00  0.00    +0.115 A 
BRANCH  13  14
ATOM     14  O   UNL     1      28.318   7.186  47.890  1.00  0.00    -0.508 OA
ATOM     15  H   UNL     1      29.132   6.718  47.640  1.00  0.00    +0.293 HD
ENDBRANCH  13  14
ENDBRANCH   6   8
BRANCH   4  16
ATOM     16  C   UNL     1      23.990   0.853  52.460  1.00  0.00    +0.005 A 
ATOM     17  C   UNL     1      25.207   0.347  52.946  1.00  0.00    +0.014 A 
ATOM     18  C   UNL     1      22.804   0.477  53.097  1.00  0.00    +0.100 A 
ATOM     19  C   UNL     1      25.248  -0.506  54.057  1.00  0.00    +0.054 A 
ATOM     20  C   UNL     1      22.856  -0.384  54.203  1.00  0.00    +0.311 A 
ATOM     21  C   UNL     1      24.067  -0.871  54.695  1.00  0.00    +0.194 A 
BRANCH  20  22
ATOM     22  N   UNL     1      21.606  -0.756  54.832  1.00  0.00    +0.066 N 
ATOM     23  O   UNL     1      21.414  -1.956  55.068  1.00  0.00    -0.258 OA
ATOM     24  O   UNL     1      20.788   0.156  55.028  1.00  0.00    -0.258 OA
ENDBRANCH  20  22
BRANCH  21  25
ATOM     25  O   UNL     1      24.107  -1.671  55.798  1.00  0.00    -0.502 OA
ATOM     26  H   UNL     1      23.657  -2.513  55.613  1.00  0.00    +0.293 HD
ENDBRANCH  21  25
ENDBRANCH   4  16
TORSDOF 5
ENDMDL
MODEL 4
REMARK VINA RESULT:    -8.039      4.057      6.667
REMARK INTER + INTRA:         -10.736
REMARK INTER:                  -9.875
REMARK INTRA:                  -0.861
REMARK UNBOUND:                -0.818
REMARK SMILES Cc1cc(-c2ccc(O)c([N+](=O)[O-])c2)[nH]c1-c1ccc(O)cc1
REMARK SMILES IDX 1 1 2 2 3 3 4 4 15 5 16 6 17 8 18 9 23 10 19 11 22 12 20 13
REMARK SMILES IDX 21 14 5 16 6 17 14 18 7 19 10 20 8 21 11 22 12 23 13 24 9 25
REMARK H PARENT 15 7 21 15 9 26
ROOT
ATOM      1  C   UNL     1      26.173   2.426  51.127  1.00  0.00    +0.047 C 
ATOM      2  C   UNL     1      25.299   1.467  51.857  1.00  0.00    -0.025 A 
ATOM      3  C   UNL     1      23.875   1.463  51.841  1.00  0.00    +0.032 A 
ATOM      4  C   UNL     1      23.423   0.423  52.634  1.00  0.00    +0.046 A 
ATOM      5  N   UNL     1      24.550  -0.205  53.115  1.00  0.00    -0.354 N 
ATOM      6  C   UNL     1      25.695   0.411  52.663  1.00  0.00    +0.049 A 
ATOM      7  H   UNL     1      24.547  -1.013  53.722  1.00  0.00    +0.167 HD
ENDROOT
BRANCH   6   8
ATOM      8  C   UNL     1      27.024  -0.059  53.051  1.00  0.00    -0.002 A 
ATOM      9  C   UNL     1      27.421  -1.371  52.771  1.00  0.00    +0.014 A 
ATOM     10  C   UNL     1      27.921   0.800  53.701  1.00  0.00    +0.014 A 
ATOM     11  C   UNL     1      28.695  -1.818  53.133  1.00  0.00    +0.047 A 
ATOM     12  C   UNL     1      29.195   0.355  54.066  1.00  0.00    +0.047 A 
ATOM     13  C   UNL     1      29.570  -0.953  53.777  1.00  0.00    +0.115 A 
BRANCH  13  14
ATOM     14  O   UNL     1      30.801  -1.431  54.115  1.00  0.00    -0.508 OA
ATOM     15  H   UNL     1      30.750  -1.824  55.002  1.00  0.00    +0.293 HD
ENDBRANCH  13  14
ENDBRANCH   6   8
BRANCH   4  16
ATOM     16  C   UNL     1      22.063  -0.016  52.945  1.00  0.00    +0.005 A 
ATOM     17  C   UNL     1      21.830  -0.885  54.023  1.00  0.00    +0.014 A 
ATOM     18  C   UNL     1      20.974   0.410  52.179  1.00  0.00    +0.100 A 
ATOM     19  C   UNL     1      20.535  -1.313  54.347  1.00  0.00    +0.054 A 
ATOM     20  C   UNL     1      19.683  -0.031  52.507  1.00  0.00    +0.311 A 
ATOM     21  C   UNL     1      19.452  -0.880  53.589  1.00  0.00    +0.194 A 
BRANCH  20  22
ATOM     22  N   UNL     1      18.582   0.427  51.685  1.00  0.00    +0.066 N 
ATOM     23  O   UNL     1      17.915  -0.428  51.087  1.00  0.00    -0.258 OA
ATOM     24  O   UNL     1      18.430   1.654  51.591  1.00  0.00    -0.258 OA
ENDBRANCH  20  22
BRANCH  21  25
ATOM     25  O   UNL     1      18.188  -1.265  53.924  1.00  0.00    -0.502 OA
ATOM     26  H   UNL     1      18.175  -1.601  54.836  1.00  0.00    +0.293 HD
ENDBRANCH  21  25
ENDBRANCH   4  16
TORSDOF 5
ENDMDL
MODEL 5
REMARK VINA RESULT:    -7.954      4.224      5.823
REMARK INTER + INTRA:         -10.632
REMARK INTER:                 -10.160
REMARK INTRA:                  -0.472
REMARK UNBOUND:                -0.818
REMARK SMILES Cc1cc(-c2ccc(O)c([N+](=O)[O-])c2)[nH]c1-c1ccc(O)cc1
REMARK SMILES IDX 1 1 2 2 3 3 4 4 15 5 16 6 17 8 18 9 23 10 19 11 22 12 20 13
REMARK SMILES IDX 21 14 5 16 6 17 14 18 7 19 10 20 8 21 11 22 12 23 13 24 9 25
REMARK H PARENT 15 7 21 15 9 26
ROOT
ATOM      1  C   UNL     1      21.147  -1.049  54.606  1.00  0.00    +0.047 C 
ATOM      2  C   UNL     1      22.397  -0.666  53.895  1.00  0.00    -0.025 A 
ATOM      3  C   UNL     1      23.722  -0.862  54.379  1.00  0.00    +0.032 A 
ATOM      4  C   UNL     1      24.616  -0.382  53.437  1.00  0.00    +0.046 A 
ATOM      5  N   UNL     1      23.852   0.086  52.392  1.00  0.00    -0.354 N 
ATOM      6  C   UNL     1      22.508  -0.070  52.647  1.00  0.00    +0.049 A 
ATOM      7  H   UNL     1      24.220   0.494  51.544  1.00  0.00    +0.167 HD
ENDROOT
BRANCH   6   8
ATOM      8  C   UNL     1      21.490   0.369  51.695  1.00  0.00    -0.002 A 
ATOM      9  C   UNL     1      20.130   0.222  51.994  1.00  0.00    +0.014 A 
ATOM     10  C   UNL     1      21.860   0.951  50.475  1.00  0.00    +0.014 A 
ATOM     11  C   UNL     1      19.157   0.650  51.088  1.00  0.00    +0.047 A 
ATOM     12  C   UNL     1      20.888   1.377  49.566  1.00  0.00    +0.047 A 
ATOM     13  C   UNL     1      19.542   1.223  49.883  1.00  0.00    +0.115 A 
BRANCH  13  14
ATOM     14  O   UNL     1      18.560   1.624  49.027  1.00  0.00    -0.508 OA
ATOM     15  H   UNL     1      18.595   1.068  48.231  1.00  0.00    +0.293 HD
ENDBRANCH  13  14
ENDBRANCH   6   8
BRANCH   4  16
ATOM     16  C   UNL     1      26.078  -0.352  53.442  1.00  0.00    +0.005 A 
ATOM     17  C   UNL     1      26.810  -1.522  53.182  1.00  0.00    +0.014 A 
ATOM     18  C   UNL     1      26.775   0.831  53.709  1.00  0.00    +0.100 A 
ATOM     19  C   UNL     1      28.212  -1.516  53.172  1.00  0.00    +0.054 A 
ATOM     20  C   UNL     1      28.178   0.823  53.704  1.00  0.00    +0.311 A 
ATOM     21  C   UNL     1      28.902  -0.336  53.428  1.00  0.00    +0.194 A 
BRANCH  20  22
ATOM     22  N   UNL     1      28.863   2.066  53.992  1.00  0.00    +0.066 N 
ATOM     23  O   UNL     1      28.881   2.933  53.108  1.00  0.00    -0.258 OA
ATOM     24  O   UNL     1      29.438   2.143  55.088  1.00  0.00    -0.258 OA
ENDBRANCH  20  22
BRANCH  21  25
ATOM     25  O   UNL     1      30.264  -0.320  53.382  1.00  0.00    -0.502 OA
ATOM     26  H   UNL     1      30.577   0.570  53.147  1.00  0.00    +0.293 HD
ENDBRANCH  21  25
ENDBRANCH   4  16
TORSDOF 5
ENDMDL
MODEL 6
REMARK VINA RESULT:    -7.926      3.927      6.617
REMARK INTER + INTRA:         -10.597
REMARK INTER:                  -9.761
REMARK INTRA:                  -0.837
REMARK UNBOUND:                -0.818
REMARK SMILES Cc1cc(-c2ccc(O)c([N+](=O)[O-])c2)[nH]c1-c1ccc(O)cc1
REMARK SMILES IDX 1 1 2 2 3 3 4 4 15 5 16 6 17 8 18 9 23 10 19 11 22 12 20 13
REMARK SMILES IDX 21 14 5 16 6 17 14 18 7 19 10 20 8 21 11 22 12 23 13 24 9 25
REMARK H PARENT 15 7 21 15 9 26
ROOT
ATOM      1  C   UNL     1      21.155   3.438  52.199  1.00  0.00    +0.047 C 
ATOM      2  C   UNL     1      22.044   2.263  52.412  1.00  0.00    -0.025 A 
ATOM      3  C   UNL     1      23.460   2.308  52.554  1.00  0.00    +0.032 A 
ATOM      4  C   UNL     1      23.930   1.020  52.739  1.00  0.00    +0.046 A 
ATOM      5  N   UNL     1      22.821   0.204  52.725  1.00  0.00    -0.354 N 
ATOM      6  C   UNL     1      21.670   0.932  52.523  1.00  0.00    +0.049 A 
ATOM      7  H   UNL     1      22.839  -0.799  52.844  1.00  0.00    +0.167 HD
ENDROOT
BRANCH   6   8
ATOM      8  C   UNL     1      20.359   0.291  52.447  1.00  0.00    -0.002 A 
ATOM      9  C   UNL     1      19.914  -0.537  53.485  1.00  0.00    +0.014 A 
ATOM     10  C   UNL     1      19.526   0.502  51.340  1.00  0.00    +0.014 A 
ATOM     11  C   UNL     1      18.657  -1.142  53.417  1.00  0.00    +0.047 A 
ATOM     12  C   UNL     1      18.269  -0.105  51.269  1.00  0.00    +0.047 A 
ATOM     13  C   UNL     1      17.846  -0.923  52.312  1.00  0.00    +0.115 A 
BRANCH  13  14
ATOM     14  O   UNL     1      16.628  -1.535  52.285  1.00  0.00    -0.508 OA
ATOM     15  H   UNL     1      15.965  -0.895  51.977  1.00  0.00    +0.293 HD
ENDBRANCH  13  14
ENDBRANCH   6   8
BRANCH   4  16
ATOM     16  C   UNL     1      25.291   0.523  52.941  1.00  0.00    +0.005 A 
ATOM     17  C   UNL     1      25.578  -0.841  52.764  1.00  0.00    +0.014 A 
ATOM     18  C   UNL     1      26.327   1.384  53.316  1.00  0.00    +0.100 A 
ATOM     19  C   UNL     1      26.876  -1.340  52.941  1.00  0.00    +0.054 A 
ATOM     20  C   UNL     1      27.620   0.872  53.500  1.00  0.00    +0.311 A 
ATOM     21  C   UNL     1      27.906  -0.479  53.306  1.00  0.00    +0.194 A 
BRANCH  20  22
ATOM     22  N   UNL     1      28.664   1.794  53.896  1.00  0.00    +0.066 N 
ATOM     23  O   UNL     1      29.207   1.612  54.994  1.00  0.00    -0.258 OA
ATOM     24  O   UNL     1      28.891   2.740  53.128  1.00  0.00    -0.258 OA
ENDBRANCH  20  22
BRANCH  21  25
ATOM     25  O   UNL     1      29.176  -0.956  53.444  1.00  0.00    -0.502 OA
ATOM     26  H   UNL     1      29.529  -0.712  54.316  1.00  0.00    +0.293 HD
ENDBRANCH  21  25
ENDBRANCH   4  16
TORSDOF 5
ENDMDL
MODEL 7
REMARK VINA RESULT:    -7.902      4.553      7.323
REMARK INTER + INTRA:         -10.568
REMARK INTER:                  -9.669
REMARK INTRA:                  -0.899
REMARK UNBOUND:                -0.818
REMARK SMILES Cc1cc(-c2ccc(O)c([N+](=O)[O-])c2)[nH]c1-c1ccc(O)cc1
REMARK SMILES IDX 1 1 2 2 3 3 4 4 15 5 16 6 17 8 18 9 23 10 19 11 22 12 20 13
REMARK SMILES IDX 21 14 5 16 6 17 14 18 7 19 10 20 8 21 11 22 12 23 13 24 9 25
REMARK H PARENT 15 7 21 15 9 26
ROOT
ATOM      1  C   UNL     1      23.495  -1.590  55.818  1.00  0.00    +0.047 C 
ATOM      2  C   UNL     1      23.265  -0.956  54.491  1.00  0.00    -0.025 A 
ATOM      3  C   UNL     1      21.995  -0.717  53.892  1.00  0.00    +0.032 A 
ATOM      4  C   UNL     1      22.189  -0.109  52.664  1.00  0.00    +0.046 A 
ATOM      5  N   UNL     1      23.551   0.034  52.521  1.00  0.00    -0.354 N 
ATOM      6  C   UNL     1      24.223  -0.475  53.610  1.00  0.00    +0.049 A 
ATOM      7  H   UNL     1      24.008   0.455  51.724  1.00  0.00    +0.167 HD
ENDROOT
BRANCH   6   8
ATOM      8  C   UNL     1      25.682  -0.459  53.688  1.00  0.00    -0.002 A 
ATOM      9  C   UNL     1      26.332   0.318  54.654  1.00  0.00    +0.014 A 
ATOM     10  C   UNL     1      26.451  -1.227  52.803  1.00  0.00    +0.014 A 
ATOM     11  C   UNL     1      27.726   0.326  54.735  1.00  0.00    +0.047 A 
ATOM     12  C   UNL     1      27.847  -1.219  52.880  1.00  0.00    +0.047 A 
ATOM     13  C   UNL     1      28.472  -0.440  53.849  1.00  0.00    +0.115 A 
BRANCH  13  14
ATOM     14  O   UNL     1      29.830  -0.401  53.961  1.00  0.00    -0.508 OA
ATOM     15  H   UNL     1      30.095  -0.944  54.722  1.00  0.00    +0.293 HD
ENDBRANCH  13  14
ENDBRANCH   6   8
BRANCH   4  16
ATOM     16  C   UNL     1      21.224   0.346  51.664  1.00  0.00    +0.005 A 
ATOM     17  C   UNL     1      19.846   0.258  51.922  1.00  0.00    +0.014 A 
ATOM     18  C   UNL     1      21.646   0.869  50.438  1.00  0.00    +0.100 A 
ATOM     19  C   UNL     1      18.900   0.696  50.984  1.00  0.00    +0.054 A 
ATOM     20  C   UNL     1      20.691   1.297  49.503  1.00  0.00    +0.311 A 
ATOM     21  C   UNL     1      19.323   1.225  49.768  1.00  0.00    +0.194 A 
BRANCH  20  22
ATOM     22  N   UNL     1      21.167   1.826  48.242  1.00  0.00    +0.066 N 
ATOM     23  O   UNL     1      22.088   1.223  47.675  1.00  0.00    -0.258 OA
ATOM     24  O   UNL     1      20.654   2.887  47.855  1.00  0.00    -0.258 OA
ENDBRANCH  20  22
BRANCH  21  25
ATOM     25  O   UNL     1      18.408   1.685  48.870  1.00  0.00    -0.502 OA
ATOM     26  H   UNL     1      17.867   0.948  48.540  1.00  0.00    +0.293 HD
ENDBRANCH  21  25
ENDBRANCH   4  16
TORSDOF 5
ENDMDL
MODEL 8
REMARK VINA RESULT:    -7.881      4.767      7.520
REMARK INTER + INTRA:         -10.542
REMARK INTER:                  -9.633
REMARK INTRA:                  -0.909
REMARK UNBOUND:                -0.818
REMARK SMILES Cc1cc(-c2ccc(O)c([N+](=O)[O-])c2)[nH]c1-c1ccc(O)cc1
REMARK SMILES IDX 1 1 2 2 3 3 4 4 15 5 16 6 17 8 18 9 23 10 19 11 22 12 20 13
REMARK SMILES IDX 21 14 5 16 6 17 14 18 7 19 10 20 8 21 11 22 12 23 13 24 9 25
REMARK H PARENT 15 7 21 15 9 26
ROOT
ATOM      1  C   UNL     1      23.430  -1.548  55.687  1.00  0.00    +0.047 C 
ATOM      2  C   UNL     1      23.248  -0.828  54.397  1.00  0.00    -0.025 A 
ATOM      3  C   UNL     1      21.998  -0.496  53.800  1.00  0.00    +0.032 A 
ATOM      4  C   UNL     1      22.236   0.172  52.611  1.00  0.00    +0.046 A 
ATOM      5  N   UNL     1      23.605   0.259  52.491  1.00  0.00    -0.354 N 
ATOM      6  C   UNL     1      24.238  -0.343  53.555  1.00  0.00    +0.049 A 
ATOM      7  H   UNL     1      24.091   0.703  51.725  1.00  0.00    +0.167 HD
ENDROOT
BRANCH   6   8
ATOM      8  C   UNL     1      25.695  -0.400  53.650  1.00  0.00    -0.002 A 
ATOM      9  C   UNL     1      26.374   0.367  54.603  1.00  0.00    +0.014 A 
ATOM     10  C   UNL     1      26.432  -1.230  52.793  1.00  0.00    +0.014 A 
ATOM     11  C   UNL     1      27.766   0.306  54.699  1.00  0.00    +0.047 A 
ATOM     12  C   UNL     1      27.825  -1.291  52.885  1.00  0.00    +0.047 A 
ATOM     13  C   UNL     1      28.480  -0.521  53.841  1.00  0.00    +0.115 A 
BRANCH  13  14
ATOM     14  O   UNL     1      29.837  -0.548  53.968  1.00  0.00    -0.508 OA
ATOM     15  H   UNL     1      30.200  -1.147  53.295  1.00  0.00    +0.293 HD
ENDBRANCH  13  14
ENDBRANCH   6   8
BRANCH   4  16
ATOM     16  C   UNL     1      21.305   0.729  51.630  1.00  0.00    +0.005 A 
ATOM     17  C   UNL     1      21.586   0.634  50.257  1.00  0.00    +0.014 A 
ATOM     18  C   UNL     1      20.129   1.369  52.031  1.00  0.00    +0.100 A 
ATOM     19  C   UNL     1      20.706   1.151  49.296  1.00  0.00    +0.054 A 
ATOM     20  C   UNL     1      19.259   1.890  51.062  1.00  0.00    +0.311 A 
ATOM     21  C   UNL     1      19.531   1.779  49.699  1.00  0.00    +0.194 A 
BRANCH  20  22
ATOM     22  N   UNL     1      18.055   2.553  51.518  1.00  0.00    +0.066 N 
ATOM     23  O   UNL     1      16.974   1.980  51.326  1.00  0.00    -0.258 OA
ATOM     24  O   UNL     1      18.194   3.681  52.013  1.00  0.00    -0.258 OA
ENDBRANCH  20  22
BRANCH  21  25
ATOM     25  O   UNL     1      18.657   2.250  48.766  1.00  0.00    -0.502 OA
ATOM     26  H   UNL     1      19.109   2.873  48.172  1.00  0.00    +0.293 HD
ENDBRANCH  21  25
ENDBRANCH   4  16
TORSDOF 5
ENDMDL
MODEL 9
REMARK VINA RESULT:    -7.751      2.916      8.104
REMARK INTER + INTRA:         -10.381
REMARK INTER:                  -9.688
REMARK INTRA:                  -0.694
REMARK UNBOUND:                -0.818
REMARK SMILES Cc1cc(-c2ccc(O)c([N+](=O)[O-])c2)[nH]c1-c1ccc(O)cc1
REMARK SMILES IDX 1 1 2 2 3 3 4 4 15 5 16 6 17 8 18 9 23 10 19 11 22 12 20 13
REMARK SMILES IDX 21 14 5 16 6 17 14 18 7 19 10 20 8 21 11 22 12 23 13 24 9 25
REMARK H PARENT 15 7 21 15 9 26
ROOT
ATOM      1  C   UNL     1      26.709  -0.580  52.562  1.00  0.00    +0.047 C 
ATOM      2  C   UNL     1      26.024   0.641  52.056  1.00  0.00    -0.025 A 
ATOM      3  C   UNL     1      26.637   1.691  51.314  1.00  0.00    +0.032 A 
ATOM      4  C   UNL     1      25.680   2.647  51.021  1.00  0.00    +0.046 A 
ATOM      5  N   UNL     1      24.501   2.182  51.561  1.00  0.00    -0.354 N 
ATOM      6  C   UNL     1      24.685   0.975  52.196  1.00  0.00    +0.049 A 
ATOM      7  H   UNL     1      23.613   2.660  51.505  1.00  0.00    +0.167 HD
ENDROOT
BRANCH   6   8
ATOM      8  C   UNL     1      23.585   0.285  52.867  1.00  0.00    -0.002 A 
ATOM      9  C   UNL     1      23.819  -0.459  54.028  1.00  0.00    +0.014 A 
ATOM     10  C   UNL     1      22.280   0.366  52.361  1.00  0.00    +0.014 A 
ATOM     11  C   UNL     1      22.767  -1.111  54.675  1.00  0.00    +0.047 A 
ATOM     12  C   UNL     1      21.226  -0.288  53.004  1.00  0.00    +0.047 A 
ATOM     13  C   UNL     1      21.481  -1.021  54.159  1.00  0.00    +0.115 A 
BRANCH  13  14
ATOM     14  O   UNL     1      20.483  -1.675  54.820  1.00  0.00    -0.508 OA
ATOM     15  H   UNL     1      20.238  -1.157  55.604  1.00  0.00    +0.293 HD
ENDBRANCH  13  14
ENDBRANCH   6   8
BRANCH   4  16
ATOM     16  C   UNL     1      25.786   3.904  50.282  1.00  0.00    +0.005 A 
ATOM     17  C   UNL     1      26.849   4.110  49.386  1.00  0.00    +0.014 A 
ATOM     18  C   UNL     1      24.845   4.924  50.453  1.00  0.00    +0.100 A 
ATOM     19  C   UNL     1      26.967   5.303  48.660  1.00  0.00    +0.054 A 
ATOM     20  C   UNL     1      24.978   6.117  49.727  1.00  0.00    +0.311 A 
ATOM     21  C   UNL     1      26.024   6.312  48.825  1.00  0.00    +0.194 A 
BRANCH  20  22
ATOM     22  N   UNL     1      23.987   7.152  49.937  1.00  0.00    +0.066 N 
ATOM     23  O   UNL     1      23.264   7.461  48.981  1.00  0.00    -0.258 OA
ATOM     24  O   UNL     1      23.982   7.699  51.050  1.00  0.00    -0.258 OA
ENDBRANCH  20  22
BRANCH  21  25
ATOM     25  O   UNL     1      26.116   7.458  48.092  1.00  0.00    -0.502 OA
ATOM     26  H   UNL     1      25.297   7.596  47.588  1.00  0.00    +0.293 HD
ENDBRANCH  21  25
ENDBRANCH   4  16
TORSDOF 5
ENDMDL
