MODEL 1
REMARK VINA RESULT:    -8.662      0.000      0.000
REMARK INTER + INTRA:         -11.049
REMARK INTER:                 -10.434
REMARK INTRA:                  -0.615
REMARK UNBOUND:                -0.615
REMARK SMILES O=[N+]([O-])c1ccc(O)cc1-c1ccc(-c2ccccc2)[nH]1
REMARK SMILES IDX 4 1 5 2 6 3 7 4 9 5 10 6 2 7 1 8 3 9 11 10 12 11 21 12 13 13
REMARK SMILES IDX 14 14 15 16 16 17 20 18 17 19 19 20 18 21 8 22
REMARK H PARENT 21 15 8 23
ROOT
ATOM      1  C   UNL     1      28.309   0.619  53.303  1.00  0.00    +0.278 A 
ATOM      2  C   UNL     1      29.564   0.050  53.572  1.00  0.00    +0.090 A 
ATOM      3  C   UNL     1      29.702  -1.336  53.554  1.00  0.00    +0.053 A 
ATOM      4  C   UNL     1      28.589  -2.124  53.271  1.00  0.00    +0.116 A 
ATOM      5  C   UNL     1      27.342  -1.552  53.009  1.00  0.00    +0.063 A 
ATOM      6  C   UNL     1      27.177  -0.158  53.021  1.00  0.00    +0.079 A 
ENDROOT
BRANCH   1   7
ATOM      7  N   UNL     1      28.234   2.064  53.286  1.00  0.00    +0.063 N 
ATOM      8  O   UNL     1      28.424   2.646  54.364  1.00  0.00    -0.258 OA
ATOM      9  O   UNL     1      28.046   2.606  52.189  1.00  0.00    -0.258 OA
ENDBRANCH   1   7
BRANCH   6  10
ATOM     10  C   UNL     1      25.848   0.400  52.765  1.00  0.00    +0.053 A 
ATOM     11  C   UNL     1      24.691   0.362  53.520  1.00  0.00    +0.029 A 
ATOM     12  N   UNL     1      25.550   1.112  51.625  1.00  0.00    -0.354 N 
ATOM     13  C   UNL     1      23.688   1.069  52.813  1.00  0.00    +0.029 A 
ATOM     14  C   UNL     1      24.235   1.523  51.626  1.00  0.00    +0.046 A 
ATOM     15  H   UNL     1      26.216   1.338  50.898  1.00  0.00    +0.167 HD
BRANCH  14  16
ATOM     16  C   UNL     1      23.644   2.310  50.543  1.00  0.00    -0.002 A 
ATOM     17  C   UNL     1      24.308   3.441  50.049  1.00  0.00    +0.010 A 
ATOM     18  C   UNL     1      22.409   1.959  49.981  1.00  0.00    +0.010 A 
ATOM     19  C   UNL     1      23.756   4.198  49.012  1.00  0.00    +0.001 A 
ATOM     20  C   UNL     1      21.855   2.716  48.945  1.00  0.00    +0.001 A 
ATOM     21  C   UNL     1      22.530   3.834  48.461  1.00  0.00    +0.000 A 
ENDBRANCH  14  16
ENDBRANCH   6  10
BRANCH   4  22
ATOM     22  O   UNL     1      28.674  -3.484  53.241  1.00  0.00    -0.508 OA
ATOM     23  H   UNL     1      27.850  -3.864  53.591  1.00  0.00    +0.293 HD
ENDBRANCH   4  22
TORSDOF 4
ENDMDL
MODEL 2
REMARK VINA RESULT:    -8.661      2.078      3.322
REMARK INTER + INTRA:         -11.048
REMARK INTER:                 -10.788
REMARK INTRA:                  -0.260
REMARK UNBOUND:                -0.615
REMARK SMILES O=[N+]([O-])c1ccc(O)cc1-c1ccc(-c2ccccc2)[nH]1
REMARK SMILES IDX 4 1 5 2 6 3 7 4 9 5 10 6 2 7 1 8 3 9 11 10 12 11 21 12 13 13
REMARK SMILES IDX 14 14 15 16 16 17 20 18 17 19 19 20 18 21 8 22
REMARK H PARENT 21 15 8 23
ROOT
ATOM      1  C   UNL     1      28.046   0.525  53.308  1.00  0.00    +0.278 A 
ATOM      2  C   UNL     1      29.301  -0.012  53.636  1.00  0.00    +0.090 A 
ATOM      3  C   UNL     1      29.500  -1.388  53.540  1.00  0.00    +0.053 A 
ATOM      4  C   UNL     1      28.448  -2.197  53.122  1.00  0.00    +0.116 A 
ATOM      5  C   UNL     1      27.200  -1.658  52.802  1.00  0.00    +0.063 A 
ATOM      6  C   UNL     1      26.973  -0.276  52.890  1.00  0.00    +0.079 A 
ENDROOT
BRANCH   1   7
ATOM      7  N   UNL     1      27.909   1.963  53.378  1.00  0.00    +0.063 N 
ATOM      8  O   UNL     1      27.290   2.418  54.351  1.00  0.00    -0.258 OA
ATOM      9  O   UNL     1      28.468   2.627  52.496  1.00  0.00    -0.258 OA
ENDBRANCH   1   7
BRANCH   6  10
ATOM     10  C   UNL     1      25.644   0.246  52.568  1.00  0.00    +0.053 A 
ATOM     11  C   UNL     1      25.261   1.348  51.826  1.00  0.00    +0.029 A 
ATOM     12  N   UNL     1      24.485  -0.356  53.005  1.00  0.00    -0.354 N 
ATOM     13  C   UNL     1      23.845   1.396  51.821  1.00  0.00    +0.029 A 
ATOM     14  C   UNL     1      23.373   0.333  52.570  1.00  0.00    +0.046 A 
ATOM     15  H   UNL     1      24.450  -1.212  53.542  1.00  0.00    +0.167 HD
BRANCH  14  16
ATOM     16  C   UNL     1      22.005  -0.088  52.873  1.00  0.00    -0.002 A 
ATOM     17  C   UNL     1      21.765  -1.040  53.873  1.00  0.00    +0.010 A 
ATOM     18  C   UNL     1      20.912   0.442  52.175  1.00  0.00    +0.010 A 
ATOM     19  C   UNL     1      20.462  -1.445  54.175  1.00  0.00    +0.001 A 
ATOM     20  C   UNL     1      19.608   0.036  52.475  1.00  0.00    +0.001 A 
ATOM     21  C   UNL     1      19.384  -0.906  53.475  1.00  0.00    +0.000 A 
ENDBRANCH  14  16
ENDBRANCH   6  10
BRANCH   4  22
ATOM     22  O   UNL     1      28.594  -3.548  53.012  1.00  0.00    -0.508 OA
ATOM     23  H   UNL     1      28.946  -3.901  53.846  1.00  0.00    +0.293 HD
ENDBRANCH   4  22
TORSDOF 4
ENDMDL
MODEL 3
REMARK VINA RESULT:    -7.873      2.015      3.529
REMARK INTER + INTRA:         -10.099
REMARK INTER:                  -9.634
REMARK INTRA:                  -0.465
REMARK UNBOUND:                -0.615
REMARK SMILES O=[N+]([O-])c1ccc(O)cc1-c1ccc(-c2ccccc2)[nH]1
REMARK SMILES IDX 4 1 5 2 6 3 7 4 9 5 10 6 2 7 1 8 3 9 11 10 12 11 21 12 13 13
REMARK SMILES IDX 14 14 15 16 16 17 20 18 17 19 19 20 18 21 8 22
REMARK H PARENT 21 15 8 23
ROOT
ATOM      1  C   UNL     1      28.082  -1.045  53.260  1.00  0.00    +0.278 A 
ATOM      2  C   UNL     1      29.464  -0.819  53.173  1.00  0.00    +0.090 A 
ATOM      3  C   UNL     1      29.991   0.378  53.652  1.00  0.00    +0.053 A 
ATOM      4  C   UNL     1      29.131   1.324  54.204  1.00  0.00    +0.116 A 
ATOM      5  C   UNL     1      27.756   1.096  54.283  1.00  0.00    +0.063 A 
ATOM      6  C   UNL     1      27.200  -0.102  53.809  1.00  0.00    +0.079 A 
ENDROOT
BRANCH   1   7
ATOM      7  N   UNL     1      27.594  -2.324  52.794  1.00  0.00    +0.063 N 
ATOM      8  O   UNL     1      26.633  -2.304  52.012  1.00  0.00    -0.258 OA
ATOM      9  O   UNL     1      28.211  -3.332  53.163  1.00  0.00    -0.258 OA
ENDBRANCH   1   7
BRANCH   6  10
ATOM     10  C   UNL     1      25.751  -0.291  53.889  1.00  0.00    +0.053 A 
ATOM     11  C   UNL     1      24.971  -0.907  54.850  1.00  0.00    +0.029 A 
ATOM     12  N   UNL     1      24.888   0.169  52.919  1.00  0.00    -0.354 N 
ATOM     13  C   UNL     1      23.619  -0.805  54.443  1.00  0.00    +0.029 A 
ATOM     14  C   UNL     1      23.582  -0.140  53.230  1.00  0.00    +0.046 A 
ATOM     15  H   UNL     1      25.169   0.699  52.105  1.00  0.00    +0.167 HD
BRANCH  14  16
ATOM     16  C   UNL     1      22.449   0.238  52.383  1.00  0.00    -0.002 A 
ATOM     17  C   UNL     1      22.656   1.006  51.229  1.00  0.00    +0.010 A 
ATOM     18  C   UNL     1      21.142  -0.150  52.705  1.00  0.00    +0.010 A 
ATOM     19  C   UNL     1      21.583   1.369  50.411  1.00  0.00    +0.001 A 
ATOM     20  C   UNL     1      20.067   0.214  51.888  1.00  0.00    +0.001 A 
ATOM     21  C   UNL     1      20.289   0.972  50.742  1.00  0.00    +0.000 A 
ENDBRANCH  14  16
ENDBRANCH   6  10
BRANCH   4  22
ATOM     22  O   UNL     1      29.600   2.510  54.686  1.00  0.00    -0.508 OA
ATOM     23  H   UNL     1      29.823   3.092  53.940  1.00  0.00    +0.293 HD
ENDBRANCH   4  22
TORSDOF 4
ENDMDL
MODEL 4
REMARK VINA RESULT:    -7.717      2.754      4.329
REMARK INTER + INTRA:          -9.912
REMARK INTER:                  -9.448
REMARK INTRA:                  -0.464
REMARK UNBOUND:                -0.615
REMARK SMILES O=[N+]([O-])c1ccc(O)cc1-c1ccc(-c2ccccc2)[nH]1
REMARK SMILES IDX 4 1 5 2 6 3 7 4 9 5 10 6 2 7 1 8 3 9 11 10 12 11 21 12 13 13
REMARK SMILES IDX 14 14 15 16 16 17 20 18 17 19 19 20 18 21 8 22
REMARK H PARENT 21 15 8 23
ROOT
ATOM      1  C   UNL     1      24.543  -0.054  53.536  1.00  0.00    +0.278 A 
ATOM      2  C   UNL     1      24.521  -0.868  54.680  1.00  0.00    +0.090 A 
ATOM      3  C   UNL     1      23.297  -1.288  55.195  1.00  0.00    +0.053 A 
ATOM      4  C   UNL     1      22.123  -0.888  54.563  1.00  0.00    +0.116 A 
ATOM      5  C   UNL     1      22.150  -0.073  53.429  1.00  0.00    +0.063 A 
ATOM      6  C   UNL     1      23.370   0.363  52.889  1.00  0.00    +0.079 A 
ENDROOT
BRANCH   1   7
ATOM      7  N   UNL     1      25.841   0.311  53.015  1.00  0.00    +0.063 N 
ATOM      8  O   UNL     1      26.388   1.302  53.522  1.00  0.00    -0.258 OA
ATOM      9  O   UNL     1      26.330  -0.425  52.149  1.00  0.00    -0.258 OA
ENDBRANCH   1   7
BRANCH   6  10
ATOM     10  C   UNL     1      23.354   1.235  51.714  1.00  0.00    +0.053 A 
ATOM     11  C   UNL     1      22.403   1.402  50.725  1.00  0.00    +0.029 A 
ATOM     12  N   UNL     1      24.390   2.091  51.412  1.00  0.00    -0.354 N 
ATOM     13  C   UNL     1      22.884   2.381  49.822  1.00  0.00    +0.029 A 
ATOM     14  C   UNL     1      24.130   2.795  50.256  1.00  0.00    +0.046 A 
ATOM     15  H   UNL     1      25.215   2.217  51.981  1.00  0.00    +0.167 HD
BRANCH  14  16
ATOM     16  C   UNL     1      25.052   3.788  49.703  1.00  0.00    -0.002 A 
ATOM     17  C   UNL     1      26.409   3.478  49.540  1.00  0.00    +0.010 A 
ATOM     18  C   UNL     1      24.606   5.063  49.329  1.00  0.00    +0.010 A 
ATOM     19  C   UNL     1      27.297   4.416  49.008  1.00  0.00    +0.001 A 
ATOM     20  C   UNL     1      25.495   6.003  48.799  1.00  0.00    +0.001 A 
ATOM     21  C   UNL     1      26.839   5.678  48.638  1.00  0.00    +0.000 A 
ENDBRANCH  14  16
ENDBRANCH   6  10
BRANCH   4  22
ATOM     22  O   UNL     1      20.901  -1.273  55.029  1.00  0.00    -0.508 OA
ATOM     23  H   UNL     1      20.227  -0.644  54.720  1.00  0.00    +0.293 HD
ENDBRANCH   4  22
TORSDOF 4
ENDMDL
MODEL 5
REMARK VINA RESULT:    -7.693      3.546      7.159
REMARK INTER + INTRA:          -9.882
REMARK INTER:                  -9.141
REMARK INTRA:                  -0.741
REMARK UNBOUND:                -0.615
REMARK SMILES O=[N+]([O-])c1ccc(O)cc1-c1ccc(-c2ccccc2)[nH]1
REMARK SMILES IDX 4 1 5 2 6 3 7 4 9 5 10 6 2 7 1 8 3 9 11 10 12 11 21 12 13 13
REMARK SMILES IDX 14 14 15 16 16 17 20 18 17 19 19 20 18 21 8 22
REMARK H PARENT 21 15 8 23
ROOT
ATOM      1  C   UNL     1      21.134   0.100  52.774  1.00  0.00    +0.278 A 
ATOM      2  C   UNL     1      19.823  -0.112  52.319  1.00  0.00    +0.090 A 
ATOM      3  C   UNL     1      19.467   0.318  51.042  1.00  0.00    +0.053 A 
ATOM      4  C   UNL     1      20.422   0.949  50.249  1.00  0.00    +0.116 A 
ATOM      5  C   UNL     1      21.723   1.161  50.710  1.00  0.00    +0.063 A 
ATOM      6  C   UNL     1      22.107   0.738  51.992  1.00  0.00    +0.079 A 
ENDROOT
BRANCH   1   7
ATOM      7  N   UNL     1      21.463  -0.411  54.087  1.00  0.00    +0.063 N 
ATOM      8  O   UNL     1      21.077   0.257  55.058  1.00  0.00    -0.258 OA
ATOM      9  O   UNL     1      22.048  -1.500  54.139  1.00  0.00    -0.258 OA
ENDBRANCH   1   7
BRANCH   6  10
ATOM     10  C   UNL     1      23.473   1.000  52.445  1.00  0.00    +0.053 A 
ATOM     11  C   UNL     1      24.058   2.154  52.934  1.00  0.00    +0.029 A 
ATOM     12  N   UNL     1      24.453   0.032  52.448  1.00  0.00    -0.354 N 
ATOM     13  C   UNL     1      25.410   1.861  53.236  1.00  0.00    +0.029 A 
ATOM     14  C   UNL     1      25.647   0.535  52.917  1.00  0.00    +0.046 A 
ATOM     15  H   UNL     1      24.309  -0.932  52.178  1.00  0.00    +0.167 HD
BRANCH  14  16
ATOM     16  C   UNL     1      26.860  -0.275  53.042  1.00  0.00    -0.002 A 
ATOM     17  C   UNL     1      28.052   0.306  53.496  1.00  0.00    +0.010 A 
ATOM     18  C   UNL     1      26.860  -1.636  52.709  1.00  0.00    +0.010 A 
ATOM     19  C   UNL     1      29.215  -0.459  53.624  1.00  0.00    +0.001 A 
ATOM     20  C   UNL     1      28.024  -2.401  52.835  1.00  0.00    +0.001 A 
ATOM     21  C   UNL     1      29.199  -1.812  53.293  1.00  0.00    +0.000 A 
ENDBRANCH  14  16
ENDBRANCH   6  10
BRANCH   4  22
ATOM     22  O   UNL     1      20.122   1.387  48.994  1.00  0.00    -0.508 OA
ATOM     23  H   UNL     1      20.822   1.989  48.689  1.00  0.00    +0.293 HD
ENDBRANCH   4  22
TORSDOF 4
ENDMDL
MODEL 6
REMARK VINA RESULT:    -7.656      3.632      4.768
REMARK INTER + INTRA:          -9.838
REMARK INTER:                  -9.273
REMARK INTRA:                  -0.565
REMARK UNBOUND:                -0.615
REMARK SMILES O=[N+]([O-])c1ccc(O)cc1-c1ccc(-c2ccccc2)[nH]1
REMARK SMILES IDX 4 1 5 2 6 3 7 4 9 5 10 6 2 7 1 8 3 9 11 10 12 11 21 12 13 13
REMARK SMILES IDX 14 14 15 16 16 17 20 18 17 19 19 20 18 21 8 22
REMARK H PARENT 21 15 8 23
ROOT
ATOM      1  C   UNL     1      24.901   1.073  52.412  1.00  0.00    +0.278 A 
ATOM      2  C   UNL     1      26.220   1.382  52.041  1.00  0.00    +0.090 A 
ATOM      3  C   UNL     1      27.251   0.524  52.417  1.00  0.00    +0.053 A 
ATOM      4  C   UNL     1      26.949  -0.618  53.154  1.00  0.00    +0.116 A 
ATOM      5  C   UNL     1      25.636  -0.917  53.524  1.00  0.00    +0.063 A 
ATOM      6  C   UNL     1      24.579  -0.070  53.158  1.00  0.00    +0.079 A 
ENDROOT
BRANCH   1   7
ATOM      7  N   UNL     1      23.864   1.971  51.954  1.00  0.00    +0.063 N 
ATOM      8  O   UNL     1      23.426   1.780  50.810  1.00  0.00    -0.258 OA
ATOM      9  O   UNL     1      23.453   2.817  52.758  1.00  0.00    -0.258 OA
ENDBRANCH   1   7
BRANCH   6  10
ATOM     10  C   UNL     1      23.220  -0.407  53.586  1.00  0.00    +0.053 A 
ATOM     11  C   UNL     1      22.749  -0.911  54.784  1.00  0.00    +0.029 A 
ATOM     12  N   UNL     1      22.123  -0.245  52.769  1.00  0.00    -0.354 N 
ATOM     13  C   UNL     1      21.343  -1.046  54.674  1.00  0.00    +0.029 A 
ATOM     14  C   UNL     1      20.967  -0.637  53.407  1.00  0.00    +0.046 A 
ATOM     15  H   UNL     1      22.154   0.146  51.837  1.00  0.00    +0.167 HD
BRANCH  14  16
ATOM     16  C   UNL     1      19.646  -0.563  52.782  1.00  0.00    -0.002 A 
ATOM     17  C   UNL     1      18.558  -1.241  53.348  1.00  0.00    +0.010 A 
ATOM     18  C   UNL     1      19.439   0.178  51.611  1.00  0.00    +0.010 A 
ATOM     19  C   UNL     1      17.291  -1.172  52.762  1.00  0.00    +0.001 A 
ATOM     20  C   UNL     1      18.172   0.246  51.023  1.00  0.00    +0.001 A 
ATOM     21  C   UNL     1      17.100  -0.429  51.599  1.00  0.00    +0.000 A 
ENDBRANCH  14  16
ENDBRANCH   6  10
BRANCH   4  22
ATOM     22  O   UNL     1      27.924  -1.487  53.544  1.00  0.00    -0.508 OA
ATOM     23  H   UNL     1      28.173  -1.296  54.465  1.00  0.00    +0.293 HD
ENDBRANCH   4  22
TORSDOF 4
ENDMDL
MODEL 7
REMARK VINA RESULT:    -7.625      3.615      5.119
REMARK INTER + INTRA:          -9.800
REMARK INTER:                  -9.306
REMARK INTRA:                  -0.494
REMARK UNBOUND:                -0.615
REMARK SMILES O=[N+]([O-])c1ccc(O)cc1-c1ccc(-c2ccccc2)[nH]1
REMARK SMILES IDX 4 1 5 2 6 3 7 4 9 5 10 6 2 7 1 8 3 9 11 10 12 11 21 12 13 13
REMARK SMILES IDX 14 14 15 16 16 17 20 18 17 19 19 20 18 21 8 22
REMARK H PARENT 21 15 8 23
ROOT
ATOM      1  C   UNL     1      22.036   0.388  52.555  1.00  0.00    +0.278 A 
ATOM      2  C   UNL     1      20.983  -0.265  53.215  1.00  0.00    +0.090 A 
ATOM      3  C   UNL     1      21.260  -1.047  54.334  1.00  0.00    +0.053 A 
ATOM      4  C   UNL     1      22.577  -1.161  54.772  1.00  0.00    +0.116 A 
ATOM      5  C   UNL     1      23.621  -0.513  54.108  1.00  0.00    +0.063 A 
ATOM      6  C   UNL     1      23.369   0.280  52.978  1.00  0.00    +0.079 A 
ENDROOT
BRANCH   1   7
ATOM      7  N   UNL     1      21.686   1.225  51.429  1.00  0.00    +0.063 N 
ATOM      8  O   UNL     1      21.706   0.693  50.310  1.00  0.00    -0.258 OA
ATOM      9  O   UNL     1      21.336   2.387  51.676  1.00  0.00    -0.258 OA
ENDBRANCH   1   7
BRANCH   6  10
ATOM     10  C   UNL     1      24.493   0.923  52.298  1.00  0.00    +0.053 A 
ATOM     11  C   UNL     1      25.824   0.557  52.206  1.00  0.00    +0.029 A 
ATOM     12  N   UNL     1      24.359   2.095  51.586  1.00  0.00    -0.354 N 
ATOM     13  C   UNL     1      26.488   1.530  51.420  1.00  0.00    +0.029 A 
ATOM     14  C   UNL     1      25.564   2.491  51.048  1.00  0.00    +0.046 A 
ATOM     15  H   UNL     1      23.484   2.582  51.443  1.00  0.00    +0.167 HD
BRANCH  14  16
ATOM     16  C   UNL     1      25.715   3.695  50.231  1.00  0.00    -0.002 A 
ATOM     17  C   UNL     1      26.905   3.926  49.528  1.00  0.00    +0.010 A 
ATOM     18  C   UNL     1      24.685   4.641  50.135  1.00  0.00    +0.010 A 
ATOM     19  C   UNL     1      27.060   5.070  48.741  1.00  0.00    +0.001 A 
ATOM     20  C   UNL     1      24.839   5.787  49.349  1.00  0.00    +0.001 A 
ATOM     21  C   UNL     1      26.026   5.999  48.652  1.00  0.00    +0.000 A 
ENDBRANCH  14  16
ENDBRANCH   6  10
BRANCH   4  22
ATOM     22  O   UNL     1      22.898  -1.914  55.862  1.00  0.00    -0.508 OA
ATOM     23  H   UNL     1      23.811  -1.715  56.130  1.00  0.00    +0.293 HD
ENDBRANCH   4  22
TORSDOF 4
ENDMDL
MODEL 8
REMARK VINA RESULT:    -7.459      2.227      2.891
REMARK INTER + INTRA:          -9.600
REMARK INTER:                  -8.867
REMARK INTRA:                  -0.733
REMARK UNBOUND:                -0.615
REMARK SMILES O=[N+]([O-])c1ccc(O)cc1-c1ccc(-c2ccccc2)[nH]1
REMARK SMILES IDX 4 1 5 2 6 3 7 4 9 5 10 6 2 7 1 8 3 9 11 10 12 11 21 12 13 13
REMARK SMILES IDX 14 14 15 16 16 17 20 18 17 19 19 20 18 21 8 22
REMARK H PARENT 21 15 8 23
ROOT
ATOM      1  C   UNL     1      26.674   0.555  53.274  1.00  0.00    +0.278 A 
ATOM      2  C   UNL     1      28.069   0.454  53.154  1.00  0.00    +0.090 A 
ATOM      3  C   UNL     1      28.651  -0.804  53.014  1.00  0.00    +0.053 A 
ATOM      4  C   UNL     1      27.834  -1.931  52.997  1.00  0.00    +0.116 A 
ATOM      5  C   UNL     1      26.447  -1.824  53.122  1.00  0.00    +0.063 A 
ATOM      6  C   UNL     1      25.835  -0.569  53.264  1.00  0.00    +0.079 A 
ENDROOT
BRANCH   1   7
ATOM      7  N   UNL     1      26.118   1.887  53.367  1.00  0.00    +0.063 N 
ATOM      8  O   UNL     1      25.567   2.335  52.351  1.00  0.00    -0.258 OA
ATOM      9  O   UNL     1      26.183   2.450  54.467  1.00  0.00    -0.258 OA
ENDBRANCH   1   7
BRANCH   6  10
ATOM     10  C   UNL     1      24.381  -0.502  53.415  1.00  0.00    +0.053 A 
ATOM     11  C   UNL     1      23.572  -0.765  54.505  1.00  0.00    +0.029 A 
ATOM     12  N   UNL     1      23.545  -0.128  52.387  1.00  0.00    -0.354 N 
ATOM     13  C   UNL     1      22.230  -0.537  54.115  1.00  0.00    +0.029 A 
ATOM     14  C   UNL     1      22.226  -0.150  52.786  1.00  0.00    +0.046 A 
ATOM     15  H   UNL     1      23.857   0.163  51.470  1.00  0.00    +0.167 HD
BRANCH  14  16
ATOM     16  C   UNL     1      21.118   0.215  51.902  1.00  0.00    -0.002 A 
ATOM     17  C   UNL     1      21.374   0.812  50.660  1.00  0.00    +0.010 A 
ATOM     18  C   UNL     1      19.788  -0.017  52.274  1.00  0.00    +0.010 A 
ATOM     19  C   UNL     1      20.325   1.160  49.806  1.00  0.00    +0.001 A 
ATOM     20  C   UNL     1      18.737   0.333  51.420  1.00  0.00    +0.001 A 
ATOM     21  C   UNL     1      19.007   0.920  50.187  1.00  0.00    +0.000 A 
ENDBRANCH  14  16
ENDBRANCH   6  10
BRANCH   4  22
ATOM     22  O   UNL     1      28.357  -3.183  52.862  1.00  0.00    -0.508 OA
ATOM     23  H   UNL     1      28.060  -3.735  53.605  1.00  0.00    +0.293 HD
ENDBRANCH   4  22
TORSDOF 4
ENDMDL
MODEL 9
REMARK VINA RESULT:    -7.235      3.621      5.938
REMARK INTER + INTRA:          -9.330
REMARK INTER:                  -8.879
REMARK INTRA:                  -0.452
REMARK UNBOUND:                -0.615
REMARK SMILES O=[N+]([O-])c1ccc(O)cc1-c1ccc(-c2ccccc2)[nH]1
REMARK SMILES IDX 4 1 5 2 6 3 7 4 9 5 10 6 2 7 1 8 3 9 11 10 12 11 21 12 13 13
REMARK SMILES IDX 14 14 15 16 16 17 20 18 17 19 19 20 18 21 8 22
REMARK H PARENT 21 15 8 23
ROOT
ATOM      1  C   UNL     1      24.788   4.482  50.521  1.00  0.00    +0.278 A 
ATOM      2  C   UNL     1      25.021   5.633  49.752  1.00  0.00    +0.090 A 
ATOM      3  C   UNL     1      26.190   5.723  48.999  1.00  0.00    +0.053 A 
ATOM      4  C   UNL     1      27.099   4.669  49.029  1.00  0.00    +0.116 A 
ATOM      5  C   UNL     1      26.864   3.530  49.801  1.00  0.00    +0.063 A 
ATOM      6  C   UNL     1      25.694   3.413  50.568  1.00  0.00    +0.079 A 
ENDROOT
BRANCH   1   7
ATOM      7  N   UNL     1      23.536   4.419  51.244  1.00  0.00    +0.063 N 
ATOM      8  O   UNL     1      23.543   4.841  52.410  1.00  0.00    -0.258 OA
ATOM      9  O   UNL     1      22.547   4.006  50.626  1.00  0.00    -0.258 OA
ENDBRANCH   1   7
BRANCH   6  10
ATOM     10  C   UNL     1      25.497   2.213  51.382  1.00  0.00    +0.053 A 
ATOM     11  C   UNL     1      26.403   1.280  51.853  1.00  0.00    +0.029 A 
ATOM     12  N   UNL     1      24.257   1.817  51.832  1.00  0.00    -0.354 N 
ATOM     13  C   UNL     1      25.684   0.316  52.601  1.00  0.00    +0.029 A 
ATOM     14  C   UNL     1      24.343   0.657  52.571  1.00  0.00    +0.046 A 
ATOM     15  H   UNL     1      23.399   2.330  51.676  1.00  0.00    +0.167 HD
BRANCH  14  16
ATOM     16  C   UNL     1      23.181   0.015  53.186  1.00  0.00    -0.002 A 
ATOM     17  C   UNL     1      23.341  -0.805  54.311  1.00  0.00    +0.010 A 
ATOM     18  C   UNL     1      21.892   0.198  52.667  1.00  0.00    +0.010 A 
ATOM     19  C   UNL     1      22.238  -1.420  54.909  1.00  0.00    +0.001 A 
ATOM     20  C   UNL     1      20.788  -0.418  53.264  1.00  0.00    +0.001 A 
ATOM     21  C   UNL     1      20.962  -1.225  54.385  1.00  0.00    +0.000 A 
ENDBRANCH  14  16
ENDBRANCH   6  10
BRANCH   4  22
ATOM     22  O   UNL     1      28.256   4.712  48.310  1.00  0.00    -0.508 OA
ATOM     23  H   UNL     1      28.054   4.566  47.370  1.00  0.00    +0.293 HD
ENDBRANCH   4  22
TORSDOF 4
ENDMDL
