MODEL 1
REMARK VINA RESULT:    -8.761      0.000      0.000
REMARK INTER + INTRA:         -12.582
REMARK INTER:                 -11.322
REMARK INTRA:                  -1.260
REMARK UNBOUND:                -1.260
REMARK SMILES Fc1ccc(C/N=N/Nc2ccc3ncnc(-c4ccccc4)c3c2)cc1Cl
REMARK SMILES IDX 7 1 8 2 6 3 5 4 2 5 3 6 27 7 4 8 26 9 1 10 28 11 9 12 10 14
REMARK SMILES IDX 11 15 25 16 12 17 24 18 13 19 17 20 14 21 16 22 15 23 18 24
REMARK SMILES IDX 19 25 23 26 20 27 22 28 21 29
REMARK H PARENT 9 13
ROOT
ATOM      1  N   UNL     1      22.329   3.080  49.868  1.00  0.00    -0.166 NA
ATOM      2  N   UNL     1      21.225   2.972  50.432  1.00  0.00    -0.074 NA
ENDROOT
BRANCH   1   3
ATOM      3  C   UNL     1      22.847   4.457  49.914  1.00  0.00    +0.204 C 
BRANCH   3   4
ATOM      4  C   UNL     1      24.317   4.523  49.573  1.00  0.00    -0.023 A 
ATOM      5  C   UNL     1      27.028   4.639  48.888  1.00  0.00    +0.141 A 
ATOM      6  C   UNL     1      26.514   3.488  49.478  1.00  0.00    +0.041 A 
ATOM      7  C   UNL     1      26.204   5.733  48.637  1.00  0.00    +0.077 A 
ATOM      8  C   UNL     1      25.160   3.428  49.818  1.00  0.00    +0.009 A 
ATOM      9  C   UNL     1      24.852   5.677  48.976  1.00  0.00    +0.029 A 
ATOM     10  F   UNL     1      28.330   4.672  48.570  1.00  0.00    -0.205 F 
ATOM     11 Cl   UNL     1      26.833   7.160  47.910  1.00  0.00    -0.081 Cl
ENDBRANCH   3   4
ENDBRANCH   1   3
BRANCH   2  12
ATOM     12  N   UNL     1      20.895   1.671  50.337  1.00  0.00    -0.260 N 
ATOM     13  H   UNL     1      20.100   1.476  49.739  1.00  0.00    +0.192 HD
BRANCH  12  14
ATOM     14  C   UNL     1      21.023   0.847  51.468  1.00  0.00    +0.059 A 
ATOM     15  C   UNL     1      19.928   0.278  52.117  1.00  0.00    +0.030 A 
ATOM     16  C   UNL     1      22.284   0.670  52.048  1.00  0.00    +0.040 A 
ATOM     17  C   UNL     1      20.102  -0.491  53.275  1.00  0.00    +0.031 A 
ATOM     18  C   UNL     1      22.464  -0.103  53.229  1.00  0.00    +0.029 A 
ATOM     19  C   UNL     1      21.354  -0.699  53.838  1.00  0.00    +0.074 A 
ATOM     20  C   UNL     1      23.691  -0.350  53.872  1.00  0.00    +0.081 A 
ATOM     21  N   UNL     1      21.442  -1.453  54.939  1.00  0.00    -0.236 NA
ATOM     22  N   UNL     1      23.802  -1.124  54.973  1.00  0.00    -0.236 NA
ATOM     23  C   UNL     1      22.664  -1.631  55.454  1.00  0.00    +0.223 A 
BRANCH  20  24
ATOM     24  C   UNL     1      24.972   0.203  53.405  1.00  0.00    +0.001 A 
ATOM     25  C   UNL     1      25.283   1.563  53.573  1.00  0.00    +0.010 A 
ATOM     26  C   UNL     1      25.923  -0.625  52.788  1.00  0.00    +0.010 A 
ATOM     27  C   UNL     1      26.497   2.083  53.117  1.00  0.00    +0.001 A 
ATOM     28  C   UNL     1      27.137  -0.105  52.331  1.00  0.00    +0.001 A 
ATOM     29  C   UNL     1      27.421   1.249  52.492  1.00  0.00    +0.000 A 
ENDBRANCH  20  24
ENDBRANCH  12  14
ENDBRANCH   2  12
TORSDOF 5
ENDMDL
MODEL 2
REMARK VINA RESULT:    -8.520      2.766      5.740
REMARK INTER + INTRA:         -12.271
REMARK INTER:                 -10.745
REMARK INTRA:                  -1.525
REMARK UNBOUND:                -1.260
REMARK SMILES Fc1ccc(C/N=N/Nc2ccc3ncnc(-c4ccccc4)c3c2)cc1Cl
REMARK SMILES IDX 7 1 8 2 6 3 5 4 2 5 3 6 27 7 4 8 26 9 1 10 28 11 9 12 10 14
REMARK SMILES IDX 11 15 25 16 12 17 24 18 13 19 17 20 14 21 16 22 15 23 18 24
REMARK SMILES IDX 19 25 23 26 20 27 22 28 21 29
REMARK H PARENT 9 13
ROOT
ATOM      1  N   UNL     1      22.522  -1.729  55.147  1.00  0.00    -0.166 NA
ATOM      2  N   UNL     1      21.638  -0.853  55.133  1.00  0.00    -0.074 NA
ENDROOT
BRANCH   1   3
ATOM      3  C   UNL     1      23.769  -1.252  55.767  1.00  0.00    +0.204 C 
BRANCH   3   4
ATOM      4  C   UNL     1      24.742  -0.712  54.744  1.00  0.00    -0.023 A 
ATOM      5  C   UNL     1      26.537   0.339  52.872  1.00  0.00    +0.141 A 
ATOM      6  C   UNL     1      25.247  -0.001  52.476  1.00  0.00    +0.041 A 
ATOM      7  C   UNL     1      26.941   0.161  54.193  1.00  0.00    +0.077 A 
ATOM      8  C   UNL     1      24.349  -0.524  53.411  1.00  0.00    +0.009 A 
ATOM      9  C   UNL     1      26.047  -0.362  55.129  1.00  0.00    +0.029 A 
ATOM     10  F   UNL     1      27.379   0.840  51.957  1.00  0.00    -0.205 F 
ATOM     11 Cl   UNL     1      28.534   0.577  54.690  1.00  0.00    -0.081 Cl
ENDBRANCH   3   4
ENDBRANCH   1   3
BRANCH   2  12
ATOM     12  N   UNL     1      20.561  -1.433  54.572  1.00  0.00    -0.260 N 
ATOM     13  H   UNL     1      20.607  -2.443  54.507  1.00  0.00    +0.192 HD
BRANCH  12  14
ATOM     14  C   UNL     1      19.907  -0.782  53.512  1.00  0.00    +0.059 A 
ATOM     15  C   UNL     1      18.636  -1.146  53.071  1.00  0.00    +0.030 A 
ATOM     16  C   UNL     1      20.589   0.198  52.783  1.00  0.00    +0.040 A 
ATOM     17  C   UNL     1      18.048  -0.504  51.973  1.00  0.00    +0.031 A 
ATOM     18  C   UNL     1      20.000   0.845  51.662  1.00  0.00    +0.029 A 
ATOM     19  C   UNL     1      18.705   0.493  51.266  1.00  0.00    +0.074 A 
ATOM     20  C   UNL     1      20.600   1.851  50.883  1.00  0.00    +0.081 A 
ATOM     21  N   UNL     1      18.076   1.066  50.235  1.00  0.00    -0.236 NA
ATOM     22  N   UNL     1      19.973   2.455  49.849  1.00  0.00    -0.236 NA
ATOM     23  C   UNL     1      18.740   2.022  49.576  1.00  0.00    +0.223 A 
BRANCH  20  24
ATOM     24  C   UNL     1      21.965   2.350  51.119  1.00  0.00    +0.001 A 
ATOM     25  C   UNL     1      22.963   2.231  50.137  1.00  0.00    +0.010 A 
ATOM     26  C   UNL     1      22.297   2.968  52.334  1.00  0.00    +0.010 A 
ATOM     27  C   UNL     1      24.260   2.696  50.373  1.00  0.00    +0.001 A 
ATOM     28  C   UNL     1      23.593   3.432  52.571  1.00  0.00    +0.001 A 
ATOM     29  C   UNL     1      24.575   3.292  51.592  1.00  0.00    +0.000 A 
ENDBRANCH  20  24
ENDBRANCH  12  14
ENDBRANCH   2  12
TORSDOF 5
ENDMDL
MODEL 3
REMARK VINA RESULT:    -8.501      1.949      2.669
REMARK INTER + INTRA:         -12.246
REMARK INTER:                 -11.454
REMARK INTRA:                  -0.791
REMARK UNBOUND:                -1.260
REMARK SMILES Fc1ccc(C/N=N/Nc2ccc3ncnc(-c4ccccc4)c3c2)cc1Cl
REMARK SMILES IDX 7 1 8 2 6 3 5 4 2 5 3 6 27 7 4 8 26 9 1 10 28 11 9 12 10 14
REMARK SMILES IDX 11 15 25 16 12 17 24 18 13 19 17 20 14 21 16 22 15 23 18 24
REMARK SMILES IDX 19 25 23 26 20 27 22 28 21 29
REMARK H PARENT 9 13
ROOT
ATOM      1  N   UNL     1      25.372   3.530  49.513  1.00  0.00    -0.166 NA
ATOM      2  N   UNL     1      24.973   3.513  50.691  1.00  0.00    -0.074 NA
ENDROOT
BRANCH   1   3
ATOM      3  C   UNL     1      26.816   3.800  49.418  1.00  0.00    +0.204 C 
BRANCH   3   4
ATOM      4  C   UNL     1      27.103   5.137  48.775  1.00  0.00    -0.023 A 
ATOM      5  C   UNL     1      27.661   7.628  47.627  1.00  0.00    +0.141 A 
ATOM      6  C   UNL     1      26.381   7.356  48.098  1.00  0.00    +0.041 A 
ATOM      7  C   UNL     1      28.668   6.669  47.724  1.00  0.00    +0.077 A 
ATOM      8  C   UNL     1      26.101   6.114  48.673  1.00  0.00    +0.009 A 
ATOM      9  C   UNL     1      28.392   5.427  48.296  1.00  0.00    +0.029 A 
ATOM     10  F   UNL     1      27.905   8.828  47.081  1.00  0.00    -0.205 F 
ATOM     11 Cl   UNL     1      30.253   6.997  47.142  1.00  0.00    -0.081 Cl
ENDBRANCH   3   4
ENDBRANCH   1   3
BRANCH   2  12
ATOM     12  N   UNL     1      23.659   3.230  50.625  1.00  0.00    -0.260 N 
ATOM     13  H   UNL     1      23.064   4.018  50.397  1.00  0.00    +0.192 HD
BRANCH  12  14
ATOM     14  C   UNL     1      23.113   2.293  51.519  1.00  0.00    +0.059 A 
ATOM     15  C   UNL     1      21.752   2.234  51.814  1.00  0.00    +0.030 A 
ATOM     16  C   UNL     1      23.970   1.452  52.238  1.00  0.00    +0.040 A 
ATOM     17  C   UNL     1      21.263   1.319  52.756  1.00  0.00    +0.031 A 
ATOM     18  C   UNL     1      23.478   0.528  53.202  1.00  0.00    +0.029 A 
ATOM     19  C   UNL     1      22.103   0.458  53.449  1.00  0.00    +0.074 A 
ATOM     20  C   UNL     1      24.258  -0.366  53.957  1.00  0.00    +0.081 A 
ATOM     21  N   UNL     1      21.562  -0.394  54.326  1.00  0.00    -0.236 NA
ATOM     22  N   UNL     1      23.728  -1.247  54.833  1.00  0.00    -0.236 NA
ATOM     23  C   UNL     1      22.401  -1.209  54.976  1.00  0.00    +0.223 A 
BRANCH  20  24
ATOM     24  C   UNL     1      25.726  -0.436  53.863  1.00  0.00    +0.001 A 
ATOM     25  C   UNL     1      26.546   0.287  54.746  1.00  0.00    +0.010 A 
ATOM     26  C   UNL     1      26.340  -1.239  52.891  1.00  0.00    +0.010 A 
ATOM     27  C   UNL     1      27.939   0.226  54.643  1.00  0.00    +0.001 A 
ATOM     28  C   UNL     1      27.732  -1.301  52.788  1.00  0.00    +0.001 A 
ATOM     29  C   UNL     1      28.530  -0.565  53.661  1.00  0.00    +0.000 A 
ENDBRANCH  20  24
ENDBRANCH  12  14
ENDBRANCH   2  12
TORSDOF 5
ENDMDL
MODEL 4
REMARK VINA RESULT:    -8.212      2.230      4.264
REMARK INTER + INTRA:         -11.872
REMARK INTER:                 -10.308
REMARK INTRA:                  -1.565
REMARK UNBOUND:                -1.260
REMARK SMILES Fc1ccc(C/N=N/Nc2ccc3ncnc(-c4ccccc4)c3c2)cc1Cl
REMARK SMILES IDX 7 1 8 2 6 3 5 4 2 5 3 6 27 7 4 8 26 9 1 10 28 11 9 12 10 14
REMARK SMILES IDX 11 15 25 16 12 17 24 18 13 19 17 20 14 21 16 22 15 23 18 24
REMARK SMILES IDX 19 25 23 26 20 27 22 28 21 29
REMARK H PARENT 9 13
ROOT
ATOM      1  N   UNL     1      26.688   2.798  51.173  1.00  0.00    -0.166 NA
ATOM      2  N   UNL     1      26.547   1.580  51.385  1.00  0.00    -0.074 NA
ENDROOT
BRANCH   1   3
ATOM      3  C   UNL     1      26.666   3.120  49.737  1.00  0.00    +0.204 C 
BRANCH   3   4
ATOM      4  C   UNL     1      25.588   4.122  49.396  1.00  0.00    -0.023 A 
ATOM      5  C   UNL     1      23.600   6.004  48.811  1.00  0.00    +0.141 A 
ATOM      6  C   UNL     1      23.240   4.718  49.204  1.00  0.00    +0.041 A 
ATOM      7  C   UNL     1      24.943   6.361  48.707  1.00  0.00    +0.077 A 
ATOM      8  C   UNL     1      24.231   3.779  49.499  1.00  0.00    +0.009 A 
ATOM      9  C   UNL     1      25.935   5.425  48.999  1.00  0.00    +0.029 A 
ATOM     10  F   UNL     1      22.630   6.888  48.536  1.00  0.00    -0.205 F 
ATOM     11 Cl   UNL     1      25.396   7.947  48.220  1.00  0.00    -0.081 Cl
ENDBRANCH   3   4
ENDBRANCH   1   3
BRANCH   2  12
ATOM     12  N   UNL     1      26.557   1.441  52.723  1.00  0.00    -0.260 N 
ATOM     13  H   UNL     1      27.479   1.344  53.134  1.00  0.00    +0.192 HD
BRANCH  12  14
ATOM     14  C   UNL     1      25.532   0.707  53.345  1.00  0.00    +0.059 A 
ATOM     15  C   UNL     1      25.769  -0.198  54.377  1.00  0.00    +0.030 A 
ATOM     16  C   UNL     1      24.228   0.792  52.844  1.00  0.00    +0.040 A 
ATOM     17  C   UNL     1      24.721  -0.948  54.927  1.00  0.00    +0.031 A 
ATOM     18  C   UNL     1      23.163   0.025  53.393  1.00  0.00    +0.029 A 
ATOM     19  C   UNL     1      23.419  -0.845  54.458  1.00  0.00    +0.074 A 
ATOM     20  C   UNL     1      21.822   0.057  52.968  1.00  0.00    +0.081 A 
ATOM     21  N   UNL     1      22.470  -1.586  55.039  1.00  0.00    -0.236 NA
ATOM     22  N   UNL     1      20.846  -0.669  53.555  1.00  0.00    -0.236 NA
ATOM     23  C   UNL     1      21.227  -1.462  54.561  1.00  0.00    +0.223 A 
BRANCH  20  24
ATOM     24  C   UNL     1      21.348   0.889  51.851  1.00  0.00    +0.001 A 
ATOM     25  C   UNL     1      20.875   2.195  52.065  1.00  0.00    +0.010 A 
ATOM     26  C   UNL     1      21.370   0.398  50.536  1.00  0.00    +0.010 A 
ATOM     27  C   UNL     1      20.415   2.975  51.001  1.00  0.00    +0.001 A 
ATOM     28  C   UNL     1      20.910   1.177  49.472  1.00  0.00    +0.001 A 
ATOM     29  C   UNL     1      20.429   2.463  49.705  1.00  0.00    +0.000 A 
ENDBRANCH  20  24
ENDBRANCH  12  14
ENDBRANCH   2  12
TORSDOF 5
ENDMDL
MODEL 5
REMARK VINA RESULT:    -8.162      2.985      5.227
REMARK INTER + INTRA:         -11.807
REMARK INTER:                 -10.059
REMARK INTRA:                  -1.748
REMARK UNBOUND:                -1.260
REMARK SMILES Fc1ccc(C/N=N/Nc2ccc3ncnc(-c4ccccc4)c3c2)cc1Cl
REMARK SMILES IDX 7 1 8 2 6 3 5 4 2 5 3 6 27 7 4 8 26 9 1 10 28 11 9 12 10 14
REMARK SMILES IDX 11 15 25 16 12 17 24 18 13 19 17 20 14 21 16 22 15 23 18 24
REMARK SMILES IDX 19 25 23 26 20 27 22 28 21 29
REMARK H PARENT 9 13
ROOT
ATOM      1  N   UNL     1      19.572  -0.498  53.059  1.00  0.00    -0.166 NA
ATOM      2  N   UNL     1      20.137   0.251  53.876  1.00  0.00    -0.074 NA
ENDROOT
BRANCH   1   3
ATOM      3  C   UNL     1      18.766   0.251  52.081  1.00  0.00    +0.204 C 
BRANCH   3   4
ATOM      4  C   UNL     1      19.598   0.754  50.925  1.00  0.00    -0.023 A 
ATOM      5  C   UNL     1      21.110   1.654  48.749  1.00  0.00    +0.141 A 
ATOM      6  C   UNL     1      21.652   0.721  49.628  1.00  0.00    +0.041 A 
ATOM      7  C   UNL     1      19.820   2.142  48.944  1.00  0.00    +0.077 A 
ATOM      8  C   UNL     1      20.898   0.269  50.713  1.00  0.00    +0.009 A 
ATOM      9  C   UNL     1      19.064   1.693  50.027  1.00  0.00    +0.029 A 
ATOM     10  F   UNL     1      21.853   2.071  47.714  1.00  0.00    -0.205 F 
ATOM     11 Cl   UNL     1      19.143   3.296  47.863  1.00  0.00    -0.081 Cl
ENDBRANCH   3   4
ENDBRANCH   1   3
BRANCH   2  12
ATOM     12  N   UNL     1      20.851  -0.560  54.679  1.00  0.00    -0.260 N 
ATOM     13  H   UNL     1      20.495  -0.645  55.624  1.00  0.00    +0.192 HD
BRANCH  12  14
ATOM     14  C   UNL     1      22.250  -0.594  54.549  1.00  0.00    +0.059 A 
ATOM     15  C   UNL     1      23.062  -1.412  55.332  1.00  0.00    +0.030 A 
ATOM     16  C   UNL     1      22.881   0.304  53.681  1.00  0.00    +0.040 A 
ATOM     17  C   UNL     1      24.457  -1.371  55.205  1.00  0.00    +0.031 A 
ATOM     18  C   UNL     1      24.297   0.357  53.556  1.00  0.00    +0.029 A 
ATOM     19  C   UNL     1      25.088  -0.506  54.322  1.00  0.00    +0.074 A 
ATOM     20  C   UNL     1      25.016   1.211  52.700  1.00  0.00    +0.081 A 
ATOM     21  N   UNL     1      26.423  -0.529  54.249  1.00  0.00    -0.236 NA
ATOM     22  N   UNL     1      26.363   1.188  52.598  1.00  0.00    -0.236 NA
ATOM     23  C   UNL     1      26.998   0.318  53.389  1.00  0.00    +0.223 A 
BRANCH  20  24
ATOM     24  C   UNL     1      24.374   2.207  51.827  1.00  0.00    +0.001 A 
ATOM     25  C   UNL     1      24.877   2.481  50.543  1.00  0.00    +0.010 A 
ATOM     26  C   UNL     1      23.232   2.900  52.255  1.00  0.00    +0.010 A 
ATOM     27  C   UNL     1      24.270   3.437  49.725  1.00  0.00    +0.001 A 
ATOM     28  C   UNL     1      22.625   3.856  51.437  1.00  0.00    +0.001 A 
ATOM     29  C   UNL     1      23.147   4.127  50.174  1.00  0.00    +0.000 A 
ENDBRANCH  20  24
ENDBRANCH  12  14
ENDBRANCH   2  12
TORSDOF 5
ENDMDL
MODEL 6
REMARK VINA RESULT:    -7.975      2.545      4.053
REMARK INTER + INTRA:         -11.566
REMARK INTER:                 -10.261
REMARK INTRA:                  -1.305
REMARK UNBOUND:                -1.260
REMARK SMILES Fc1ccc(C/N=N/Nc2ccc3ncnc(-c4ccccc4)c3c2)cc1Cl
REMARK SMILES IDX 7 1 8 2 6 3 5 4 2 5 3 6 27 7 4 8 26 9 1 10 28 11 9 12 10 14
REMARK SMILES IDX 11 15 25 16 12 17 24 18 13 19 17 20 14 21 16 22 15 23 18 24
REMARK SMILES IDX 19 25 23 26 20 27 22 28 21 29
REMARK H PARENT 9 13
ROOT
ATOM      1  N   UNL     1      19.818   1.672  51.670  1.00  0.00    -0.166 NA
ATOM      2  N   UNL     1      19.741   1.231  52.831  1.00  0.00    -0.074 NA
ENDROOT
BRANCH   1   3
ATOM      3  C   UNL     1      19.334   3.058  51.566  1.00  0.00    +0.204 C 
BRANCH   3   4
ATOM      4  C   UNL     1      20.470   4.050  51.470  1.00  0.00    -0.023 A 
ATOM      5  C   UNL     1      22.554   5.913  51.334  1.00  0.00    +0.141 A 
ATOM      6  C   UNL     1      21.506   5.982  50.421  1.00  0.00    +0.041 A 
ATOM      7  C   UNL     1      22.572   4.924  52.316  1.00  0.00    +0.077 A 
ATOM      8  C   UNL     1      20.464   5.054  50.489  1.00  0.00    +0.009 A 
ATOM      9  C   UNL     1      21.534   3.995  52.386  1.00  0.00    +0.029 A 
ATOM     10  F   UNL     1      23.541   6.816  51.250  1.00  0.00    -0.205 F 
ATOM     11 Cl   UNL     1      23.865   4.832  53.447  1.00  0.00    -0.081 Cl
ENDBRANCH   3   4
ENDBRANCH   1   3
BRANCH   2  12
ATOM     12  N   UNL     1      20.238  -0.018  52.779  1.00  0.00    -0.260 N 
ATOM     13  H   UNL     1      19.560  -0.754  52.940  1.00  0.00    +0.192 HD
BRANCH  12  14
ATOM     14  C   UNL     1      21.532  -0.263  53.272  1.00  0.00    +0.059 A 
ATOM     15  C   UNL     1      21.778  -1.075  54.377  1.00  0.00    +0.030 A 
ATOM     16  C   UNL     1      22.618   0.419  52.713  1.00  0.00    +0.040 A 
ATOM     17  C   UNL     1      23.080  -1.243  54.866  1.00  0.00    +0.031 A 
ATOM     18  C   UNL     1      23.941   0.258  53.213  1.00  0.00    +0.029 A 
ATOM     19  C   UNL     1      24.168  -0.597  54.296  1.00  0.00    +0.074 A 
ATOM     20  C   UNL     1      25.093   0.885  52.706  1.00  0.00    +0.081 A 
ATOM     21  N   UNL     1      25.383  -0.814  54.812  1.00  0.00    -0.236 NA
ATOM     22  N   UNL     1      26.331   0.664  53.201  1.00  0.00    -0.236 NA
ATOM     23  C   UNL     1      26.408  -0.174  54.238  1.00  0.00    +0.223 A 
BRANCH  20  24
ATOM     24  C   UNL     1      25.068   1.837  51.584  1.00  0.00    +0.001 A 
ATOM     25  C   UNL     1      26.185   2.634  51.279  1.00  0.00    +0.010 A 
ATOM     26  C   UNL     1      23.923   1.964  50.781  1.00  0.00    +0.010 A 
ATOM     27  C   UNL     1      26.150   3.544  50.220  1.00  0.00    +0.001 A 
ATOM     28  C   UNL     1      23.887   2.874  49.723  1.00  0.00    +0.001 A 
ATOM     29  C   UNL     1      24.999   3.667  49.445  1.00  0.00    +0.000 A 
ENDBRANCH  20  24
ENDBRANCH  12  14
ENDBRANCH   2  12
TORSDOF 5
ENDMDL
MODEL 7
REMARK VINA RESULT:    -7.934      3.955      7.867
REMARK INTER + INTRA:         -11.513
REMARK INTER:                  -9.982
REMARK INTRA:                  -1.531
REMARK UNBOUND:                -1.260
REMARK SMILES Fc1ccc(C/N=N/Nc2ccc3ncnc(-c4ccccc4)c3c2)cc1Cl
REMARK SMILES IDX 7 1 8 2 6 3 5 4 2 5 3 6 27 7 4 8 26 9 1 10 28 11 9 12 10 14
REMARK SMILES IDX 11 15 25 16 12 17 24 18 13 19 17 20 14 21 16 22 15 23 18 24
REMARK SMILES IDX 19 25 23 26 20 27 22 28 21 29
REMARK H PARENT 9 13
ROOT
ATOM      1  N   UNL     1      26.766   2.803  51.182  1.00  0.00    -0.166 NA
ATOM      2  N   UNL     1      26.841   3.100  49.976  1.00  0.00    -0.074 NA
ENDROOT
BRANCH   1   3
ATOM      3  C   UNL     1      26.706   1.347  51.394  1.00  0.00    +0.204 C 
BRANCH   3   4
ATOM      4  C   UNL     1      25.470   0.935  52.159  1.00  0.00    -0.023 A 
ATOM      5  C   UNL     1      23.184   0.121  53.553  1.00  0.00    +0.141 A 
ATOM      6  C   UNL     1      23.055   0.925  52.426  1.00  0.00    +0.041 A 
ATOM      7  C   UNL     1      24.443  -0.282  53.993  1.00  0.00    +0.077 A 
ATOM      8  C   UNL     1      24.195   1.330  51.727  1.00  0.00    +0.009 A 
ATOM      9  C   UNL     1      25.584   0.121  53.298  1.00  0.00    +0.029 A 
ATOM     10  F   UNL     1      22.075  -0.256  54.206  1.00  0.00    -0.205 F 
ATOM     11 Cl   UNL     1      24.612  -1.276  55.387  1.00  0.00    -0.081 Cl
ENDBRANCH   3   4
ENDBRANCH   1   3
BRANCH   2  12
ATOM     12  N   UNL     1      26.917   4.443  49.937  1.00  0.00    -0.260 N 
ATOM     13  H   UNL     1      27.229   4.877  50.799  1.00  0.00    +0.192 HD
BRANCH  12  14
ATOM     14  C   UNL     1      25.959   5.163  49.203  1.00  0.00    +0.059 A 
ATOM     15  C   UNL     1      26.191   6.447  48.712  1.00  0.00    +0.030 A 
ATOM     16  C   UNL     1      24.674   4.632  49.046  1.00  0.00    +0.040 A 
ATOM     17  C   UNL     1      25.185   7.147  48.034  1.00  0.00    +0.031 A 
ATOM     18  C   UNL     1      23.647   5.344  48.367  1.00  0.00    +0.029 A 
ATOM     19  C   UNL     1      23.918   6.613  47.845  1.00  0.00    +0.074 A 
ATOM     20  C   UNL     1      22.336   4.884  48.146  1.00  0.00    +0.081 A 
ATOM     21  N   UNL     1      23.012   7.337  47.180  1.00  0.00    -0.236 NA
ATOM     22  N   UNL     1      21.412   5.593  47.460  1.00  0.00    -0.236 NA
ATOM     23  C   UNL     1      21.802   6.792  47.017  1.00  0.00    +0.223 A 
BRANCH  20  24
ATOM     24  C   UNL     1      21.842   3.586  48.632  1.00  0.00    +0.001 A 
ATOM     25  C   UNL     1      21.002   3.501  49.756  1.00  0.00    +0.010 A 
ATOM     26  C   UNL     1      22.192   2.398  47.973  1.00  0.00    +0.010 A 
ATOM     27  C   UNL     1      20.547   2.264  50.220  1.00  0.00    +0.001 A 
ATOM     28  C   UNL     1      21.738   1.160  48.436  1.00  0.00    +0.001 A 
ATOM     29  C   UNL     1      20.919   1.094  49.562  1.00  0.00    +0.000 A 
ENDBRANCH  20  24
ENDBRANCH  12  14
ENDBRANCH   2  12
TORSDOF 5
ENDMDL
MODEL 8
REMARK VINA RESULT:    -7.881      1.709      2.372
REMARK INTER + INTRA:         -11.445
REMARK INTER:                 -10.176
REMARK INTRA:                  -1.269
REMARK UNBOUND:                -1.260
REMARK SMILES Fc1ccc(C/N=N/Nc2ccc3ncnc(-c4ccccc4)c3c2)cc1Cl
REMARK SMILES IDX 7 1 8 2 6 3 5 4 2 5 3 6 27 7 4 8 26 9 1 10 28 11 9 12 10 14
REMARK SMILES IDX 11 15 25 16 12 17 24 18 13 19 17 20 14 21 16 22 15 23 18 24
REMARK SMILES IDX 19 25 23 26 20 27 22 28 21 29
REMARK H PARENT 9 13
ROOT
ATOM      1  N   UNL     1      20.152   2.992  49.168  1.00  0.00    -0.166 NA
ATOM      2  N   UNL     1      20.543   1.814  49.264  1.00  0.00    -0.074 NA
ENDROOT
BRANCH   1   3
ATOM      3  C   UNL     1      21.063   3.818  48.358  1.00  0.00    +0.204 C 
BRANCH   3   4
ATOM      4  C   UNL     1      22.024   4.610  49.215  1.00  0.00    -0.023 A 
ATOM      5  C   UNL     1      23.828   6.030  50.815  1.00  0.00    +0.141 A 
ATOM      6  C   UNL     1      22.524   5.831  51.255  1.00  0.00    +0.041 A 
ATOM      7  C   UNL     1      24.243   5.527  49.583  1.00  0.00    +0.077 A 
ATOM      8  C   UNL     1      21.622   5.120  50.459  1.00  0.00    +0.009 A 
ATOM      9  C   UNL     1      23.345   4.817  48.785  1.00  0.00    +0.029 A 
ATOM     10  F   UNL     1      24.675   6.714  51.598  1.00  0.00    -0.205 F 
ATOM     11 Cl   UNL     1      25.853   5.770  49.030  1.00  0.00    -0.081 Cl
ENDBRANCH   3   4
ENDBRANCH   1   3
BRANCH   2  12
ATOM     12  N   UNL     1      19.609   1.180  49.996  1.00  0.00    -0.260 N 
ATOM     13  H   UNL     1      18.708   1.643  50.031  1.00  0.00    +0.192 HD
BRANCH  12  14
ATOM     14  C   UNL     1      19.996   0.511  51.170  1.00  0.00    +0.059 A 
ATOM     15  C   UNL     1      19.087  -0.131  52.009  1.00  0.00    +0.030 A 
ATOM     16  C   UNL     1      21.329   0.577  51.589  1.00  0.00    +0.040 A 
ATOM     17  C   UNL     1      19.514  -0.737  53.198  1.00  0.00    +0.031 A 
ATOM     18  C   UNL     1      21.765  -0.029  52.800  1.00  0.00    +0.029 A 
ATOM     19  C   UNL     1      20.840  -0.705  53.603  1.00  0.00    +0.074 A 
ATOM     20  C   UNL     1      23.084  -0.030  53.291  1.00  0.00    +0.081 A 
ATOM     21  N   UNL     1      21.175  -1.313  54.746  1.00  0.00    -0.236 NA
ATOM     22  N   UNL     1      23.444  -0.656  54.433  1.00  0.00    -0.236 NA
ATOM     23  C   UNL     1      22.462  -1.262  55.107  1.00  0.00    +0.223 A 
BRANCH  20  24
ATOM     24  C   UNL     1      24.201   0.642  52.608  1.00  0.00    +0.001 A 
ATOM     25  C   UNL     1      25.464   0.035  52.509  1.00  0.00    +0.010 A 
ATOM     26  C   UNL     1      24.024   1.908  52.029  1.00  0.00    +0.010 A 
ATOM     27  C   UNL     1      26.524   0.684  51.870  1.00  0.00    +0.001 A 
ATOM     28  C   UNL     1      25.083   2.558  51.390  1.00  0.00    +0.001 A 
ATOM     29  C   UNL     1      26.333   1.947  51.315  1.00  0.00    +0.000 A 
ENDBRANCH  20  24
ENDBRANCH  12  14
ENDBRANCH   2  12
TORSDOF 5
ENDMDL
MODEL 9
REMARK VINA RESULT:    -7.758      1.692      2.060
REMARK INTER + INTRA:         -11.286
REMARK INTER:                 -10.591
REMARK INTRA:                  -0.695
REMARK UNBOUND:                -1.260
REMARK SMILES Fc1ccc(C/N=N/Nc2ccc3ncnc(-c4ccccc4)c3c2)cc1Cl
REMARK SMILES IDX 7 1 8 2 6 3 5 4 2 5 3 6 27 7 4 8 26 9 1 10 28 11 9 12 10 14
REMARK SMILES IDX 11 15 25 16 12 17 24 18 13 19 17 20 14 21 16 22 15 23 18 24
REMARK SMILES IDX 19 25 23 26 20 27 22 28 21 29
REMARK H PARENT 9 13
ROOT
ATOM      1  N   UNL     1      22.607   3.829  49.058  1.00  0.00    -0.166 NA
ATOM      2  N   UNL     1      22.918   3.503  50.218  1.00  0.00    -0.074 NA
ENDROOT
BRANCH   1   3
ATOM      3  C   UNL     1      22.381   5.278  48.928  1.00  0.00    +0.204 C 
BRANCH   3   4
ATOM      4  C   UNL     1      23.606   6.080  49.303  1.00  0.00    -0.023 A 
ATOM      5  C   UNL     1      25.892   7.522  50.028  1.00  0.00    +0.141 A 
ATOM      6  C   UNL     1      24.669   7.826  50.617  1.00  0.00    +0.041 A 
ATOM      7  C   UNL     1      25.987   6.505  49.081  1.00  0.00    +0.077 A 
ATOM      8  C   UNL     1      23.527   7.105  50.258  1.00  0.00    +0.009 A 
ATOM      9  C   UNL     1      24.849   5.784  48.719  1.00  0.00    +0.029 A 
ATOM     10  F   UNL     1      26.973   8.227  50.390  1.00  0.00    -0.205 F 
ATOM     11 Cl   UNL     1      27.495   6.124  48.347  1.00  0.00    -0.081 Cl
ENDBRANCH   3   4
ENDBRANCH   1   3
BRANCH   2  12
ATOM     12  N   UNL     1      23.119   2.173  50.179  1.00  0.00    -0.260 N 
ATOM     13  H   UNL     1      22.989   1.749  49.268  1.00  0.00    +0.192 HD
BRANCH  12  14
ATOM     14  C   UNL     1      22.731   1.389  51.279  1.00  0.00    +0.059 A 
ATOM     15  C   UNL     1      21.400   1.229  51.662  1.00  0.00    +0.030 A 
ATOM     16  C   UNL     1      23.714   0.829  52.102  1.00  0.00    +0.040 A 
ATOM     17  C   UNL     1      21.067   0.483  52.799  1.00  0.00    +0.031 A 
ATOM     18  C   UNL     1      23.380   0.078  53.264  1.00  0.00    +0.029 A 
ATOM     19  C   UNL     1      22.035  -0.104  53.602  1.00  0.00    +0.074 A 
ATOM     20  C   UNL     1      24.295  -0.534  54.139  1.00  0.00    +0.081 A 
ATOM     21  N   UNL     1      21.640  -0.809  54.668  1.00  0.00    -0.236 NA
ATOM     22  N   UNL     1      23.915  -1.267  55.208  1.00  0.00    -0.236 NA
ATOM     23  C   UNL     1      22.599  -1.360  55.420  1.00  0.00    +0.223 A 
BRANCH  20  24
ATOM     24  C   UNL     1      25.755  -0.445  53.973  1.00  0.00    +0.001 A 
ATOM     25  C   UNL     1      26.521   0.451  54.738  1.00  0.00    +0.010 A 
ATOM     26  C   UNL     1      26.419  -1.266  53.049  1.00  0.00    +0.010 A 
ATOM     27  C   UNL     1      27.905   0.539  54.566  1.00  0.00    +0.001 A 
ATOM     28  C   UNL     1      27.803  -1.179  52.876  1.00  0.00    +0.001 A 
ATOM     29  C   UNL     1      28.544  -0.273  53.632  1.00  0.00    +0.000 A 
ENDBRANCH  20  24
ENDBRANCH  12  14
ENDBRANCH   2  12
TORSDOF 5
ENDMDL
