MODEL 1
REMARK VINA RESULT:    -7.696      0.000      0.000
REMARK INTER + INTRA:         -10.128
REMARK INTER:                  -9.720
REMARK INTRA:                  -0.408
REMARK UNBOUND:                -0.408
REMARK SMILES O=C(O)c1cc(O)c(O)c(C=Cc2ccccn2)c1
REMARK SMILES IDX 4 1 5 2 6 3 8 4 10 5 19 6 2 7 1 8 3 9 7 11 11 13 12 14 13 15
REMARK SMILES IDX 14 16 18 17 15 18 17 19 16 20 9 21
REMARK H PARENT 3 10 7 12 9 22
ROOT
ATOM      1  C   UNL     1      28.406  -0.879  53.495  1.00  0.00    +0.064 A 
ATOM      2  C   UNL     1      29.149   0.271  53.784  1.00  0.00    +0.065 A 
ATOM      3  C   UNL     1      28.492   1.486  53.905  1.00  0.00    +0.158 A 
ATOM      4  C   UNL     1      27.110   1.580  53.745  1.00  0.00    +0.164 A 
ATOM      5  C   UNL     1      26.352   0.437  53.463  1.00  0.00    +0.021 A 
ATOM      6  C   UNL     1      27.012  -0.794  53.335  1.00  0.00    +0.028 A 
ENDROOT
BRANCH   1   7
ATOM      7  C   UNL     1      29.131  -2.166  53.369  1.00  0.00    +0.335 C 
ATOM      8  O   UNL     1      30.281  -2.376  53.709  1.00  0.00    -0.246 OA
BRANCH   7   9
ATOM      9  O   UNL     1      28.379  -3.136  52.822  1.00  0.00    -0.478 OA
ATOM     10  H   UNL     1      27.479  -2.745  52.796  1.00  0.00    +0.297 HD
ENDBRANCH   7   9
ENDBRANCH   1   7
BRANCH   3  11
ATOM     11  O   UNL     1      29.221   2.609  54.184  1.00  0.00    -0.504 OA
ATOM     12  H   UNL     1      28.743   3.035  54.924  1.00  0.00    +0.293 HD
ENDBRANCH   3  11
BRANCH   5  13
ATOM     13  C   UNL     1      24.897   0.475  53.308  1.00  0.00    +0.014 C 
ATOM     14  C   UNL     1      24.107  -0.461  53.861  1.00  0.00    +0.029 C 
BRANCH  14  15
ATOM     15  C   UNL     1      22.642  -0.461  53.744  1.00  0.00    +0.063 A 
ATOM     16  C   UNL     1      21.896  -1.501  54.291  1.00  0.00    +0.028 A 
ATOM     17  N   UNL     1      22.071   0.587  53.106  1.00  0.00    -0.257 NA
ATOM     18  C   UNL     1      20.509  -1.467  54.173  1.00  0.00    +0.004 A 
ATOM     19  C   UNL     1      20.723   0.593  53.004  1.00  0.00    +0.111 A 
ATOM     20  C   UNL     1      19.907  -0.402  53.516  1.00  0.00    +0.020 A 
ENDBRANCH  14  15
ENDBRANCH   5  13
BRANCH   4  21
ATOM     21  O   UNL     1      26.561   2.832  53.873  1.00  0.00    -0.504 OA
ATOM     22  H   UNL     1      27.285   3.455  54.073  1.00  0.00    +0.293 HD
ENDBRANCH   4  21
TORSDOF 6
ENDMDL
MODEL 2
REMARK VINA RESULT:    -7.623      1.013      3.060
REMARK INTER + INTRA:         -10.036
REMARK INTER:                  -9.651
REMARK INTRA:                  -0.386
REMARK UNBOUND:                -0.408
REMARK SMILES O=C(O)c1cc(O)c(O)c(C=Cc2ccccn2)c1
REMARK SMILES IDX 4 1 5 2 6 3 8 4 10 5 19 6 2 7 1 8 3 9 7 11 11 13 12 14 13 15
REMARK SMILES IDX 14 16 18 17 15 18 17 19 16 20 9 21
REMARK H PARENT 3 10 7 12 9 22
ROOT
ATOM      1  C   UNL     1      28.751   0.907  53.784  1.00  0.00    +0.064 A 
ATOM      2  C   UNL     1      29.580  -0.218  53.696  1.00  0.00    +0.065 A 
ATOM      3  C   UNL     1      29.020  -1.444  53.372  1.00  0.00    +0.158 A 
ATOM      4  C   UNL     1      27.652  -1.575  53.132  1.00  0.00    +0.164 A 
ATOM      5  C   UNL     1      26.812  -0.457  53.210  1.00  0.00    +0.021 A 
ATOM      6  C   UNL     1      27.372   0.785  53.542  1.00  0.00    +0.028 A 
ENDROOT
BRANCH   1   7
ATOM      7  C   UNL     1      29.373   2.207  54.134  1.00  0.00    +0.335 C 
ATOM      8  O   UNL     1      29.842   2.508  55.216  1.00  0.00    -0.246 OA
BRANCH   7   9
ATOM      9  O   UNL     1      29.381   3.073  53.106  1.00  0.00    -0.478 OA
ATOM     10  H   UNL     1      28.686   2.728  52.506  1.00  0.00    +0.297 HD
ENDBRANCH   7   9
ENDBRANCH   1   7
BRANCH   3  11
ATOM     11  O   UNL     1      29.831  -2.542  53.289  1.00  0.00    -0.504 OA
ATOM     12  H   UNL     1      29.449  -3.179  53.926  1.00  0.00    +0.293 HD
ENDBRANCH   3  11
BRANCH   5  13
ATOM     13  C   UNL     1      25.374  -0.533  52.946  1.00  0.00    +0.014 C 
ATOM     14  C   UNL     1      24.476  -0.528  53.945  1.00  0.00    +0.029 C 
BRANCH  14  15
ATOM     15  C   UNL     1      23.023  -0.591  53.732  1.00  0.00    +0.063 A 
ATOM     16  C   UNL     1      22.227  -1.374  54.564  1.00  0.00    +0.028 A 
ATOM     17  N   UNL     1      22.512   0.147  52.720  1.00  0.00    -0.257 NA
ATOM     18  C   UNL     1      20.852  -1.405  54.344  1.00  0.00    +0.004 A 
ATOM     19  C   UNL     1      21.174   0.096  52.528  1.00  0.00    +0.111 A 
ATOM     20  C   UNL     1      20.312  -0.658  53.305  1.00  0.00    +0.020 A 
ENDBRANCH  14  15
ENDBRANCH   5  13
BRANCH   4  21
ATOM     21  O   UNL     1      27.200  -2.835  52.831  1.00  0.00    -0.504 OA
ATOM     22  H   UNL     1      26.355  -2.742  52.353  1.00  0.00    +0.293 HD
ENDBRANCH   4  21
TORSDOF 6
ENDMDL
MODEL 3
REMARK VINA RESULT:    -7.325      3.606      7.309
REMARK INTER + INTRA:          -9.660
REMARK INTER:                  -9.246
REMARK INTRA:                  -0.414
REMARK UNBOUND:                -0.408
REMARK SMILES O=C(O)c1cc(O)c(O)c(C=Cc2ccccn2)c1
REMARK SMILES IDX 4 1 5 2 6 3 8 4 10 5 19 6 2 7 1 8 3 9 7 11 11 13 12 14 13 15
REMARK SMILES IDX 14 16 18 17 15 18 17 19 16 20 9 21
REMARK H PARENT 3 10 7 12 9 22
ROOT
ATOM      1  C   UNL     1      21.700   0.505  52.146  1.00  0.00    +0.064 A 
ATOM      2  C   UNL     1      20.763  -0.188  52.922  1.00  0.00    +0.065 A 
ATOM      3  C   UNL     1      21.203  -0.930  54.007  1.00  0.00    +0.158 A 
ATOM      4  C   UNL     1      22.556  -0.998  54.337  1.00  0.00    +0.164 A 
ATOM      5  C   UNL     1      23.504  -0.305  53.574  1.00  0.00    +0.021 A 
ATOM      6  C   UNL     1      23.066   0.445  52.472  1.00  0.00    +0.028 A 
ENDROOT
BRANCH   1   7
ATOM      7  C   UNL     1      21.205   1.291  50.990  1.00  0.00    +0.335 C 
ATOM      8  O   UNL     1      20.369   2.175  51.030  1.00  0.00    -0.246 OA
BRANCH   7   9
ATOM      9  O   UNL     1      21.784   0.933  49.832  1.00  0.00    -0.478 OA
ATOM     10  H   UNL     1      21.833   1.773  49.327  1.00  0.00    +0.297 HD
ENDBRANCH   7   9
ENDBRANCH   1   7
BRANCH   3  11
ATOM     11  O   UNL     1      20.286  -1.609  54.761  1.00  0.00    -0.504 OA
ATOM     12  H   UNL     1      20.517  -2.552  54.640  1.00  0.00    +0.293 HD
ENDBRANCH   3  11
BRANCH   5  13
ATOM     13  C   UNL     1      24.934  -0.322  53.889  1.00  0.00    +0.014 C 
ATOM     14  C   UNL     1      25.851  -0.663  52.969  1.00  0.00    +0.029 C 
BRANCH  14  15
ATOM     15  C   UNL     1      27.297  -0.686  53.233  1.00  0.00    +0.063 A 
ATOM     16  C   UNL     1      27.963   0.486  53.583  1.00  0.00    +0.028 A 
ATOM     17  N   UNL     1      27.927  -1.879  53.137  1.00  0.00    -0.257 NA
ATOM     18  C   UNL     1      29.331   0.430  53.838  1.00  0.00    +0.004 A 
ATOM     19  C   UNL     1      29.255  -1.903  53.387  1.00  0.00    +0.111 A 
ATOM     20  C   UNL     1      29.994  -0.786  53.737  1.00  0.00    +0.020 A 
ENDBRANCH  14  15
ENDBRANCH   5  13
BRANCH   4  21
ATOM     21  O   UNL     1      22.885  -1.771  55.422  1.00  0.00    -0.504 OA
ATOM     22  H   UNL     1      22.445  -2.635  55.316  1.00  0.00    +0.293 HD
ENDBRANCH   4  21
TORSDOF 6
ENDMDL
MODEL 4
REMARK VINA RESULT:    -7.178      3.471      6.881
REMARK INTER + INTRA:          -9.474
REMARK INTER:                  -9.046
REMARK INTRA:                  -0.428
REMARK UNBOUND:                -0.408
REMARK SMILES O=C(O)c1cc(O)c(O)c(C=Cc2ccccn2)c1
REMARK SMILES IDX 4 1 5 2 6 3 8 4 10 5 19 6 2 7 1 8 3 9 7 11 11 13 12 14 13 15
REMARK SMILES IDX 14 16 18 17 15 18 17 19 16 20 9 21
REMARK H PARENT 3 10 7 12 9 22
ROOT
ATOM      1  C   UNL     1      21.593  -0.041  53.565  1.00  0.00    +0.064 A 
ATOM      2  C   UNL     1      20.975   1.075  52.989  1.00  0.00    +0.065 A 
ATOM      3  C   UNL     1      21.762   2.051  52.396  1.00  0.00    +0.158 A 
ATOM      4  C   UNL     1      23.152   1.939  52.364  1.00  0.00    +0.164 A 
ATOM      5  C   UNL     1      23.784   0.825  52.929  1.00  0.00    +0.021 A 
ATOM      6  C   UNL     1      22.993  -0.163  53.535  1.00  0.00    +0.028 A 
ENDROOT
BRANCH   1   7
ATOM      7  C   UNL     1      20.731  -1.070  54.194  1.00  0.00    +0.335 C 
ATOM      8  O   UNL     1      21.109  -1.994  54.889  1.00  0.00    -0.246 OA
BRANCH   7   9
ATOM      9  O   UNL     1      19.426  -0.891  53.924  1.00  0.00    -0.478 OA
ATOM     10  H   UNL     1      19.269  -1.471  53.148  1.00  0.00    +0.297 HD
ENDBRANCH   7   9
ENDBRANCH   1   7
BRANCH   3  11
ATOM     11  O   UNL     1      21.156   3.142  51.838  1.00  0.00    -0.504 OA
ATOM     12  H   UNL     1      21.248   3.008  50.873  1.00  0.00    +0.293 HD
ENDBRANCH   3  11
BRANCH   5  13
ATOM     13  C   UNL     1      25.236   0.646  52.903  1.00  0.00    +0.014 C 
ATOM     14  C   UNL     1      25.829  -0.378  53.540  1.00  0.00    +0.029 C 
BRANCH  14  15
ATOM     15  C   UNL     1      27.281  -0.607  53.534  1.00  0.00    +0.063 A 
ATOM     16  C   UNL     1      28.152   0.419  53.891  1.00  0.00    +0.028 A 
ATOM     17  N   UNL     1      27.713  -1.842  53.190  1.00  0.00    -0.257 NA
ATOM     18  C   UNL     1      29.522   0.168  53.887  1.00  0.00    +0.004 A 
ATOM     19  C   UNL     1      29.048  -2.056  53.193  1.00  0.00    +0.111 A 
ATOM     20  C   UNL     1      29.983  -1.092  53.530  1.00  0.00    +0.020 A 
ENDBRANCH  14  15
ENDBRANCH   5  13
BRANCH   4  21
ATOM     21  O   UNL     1      23.836   2.967  51.764  1.00  0.00    -0.504 OA
ATOM     22  H   UNL     1      24.777   2.715  51.725  1.00  0.00    +0.293 HD
ENDBRANCH   4  21
TORSDOF 6
ENDMDL
MODEL 5
REMARK VINA RESULT:    -6.948      2.098      2.975
REMARK INTER + INTRA:          -9.183
REMARK INTER:                  -8.748
REMARK INTRA:                  -0.435
REMARK UNBOUND:                -0.408
REMARK SMILES O=C(O)c1cc(O)c(O)c(C=Cc2ccccn2)c1
REMARK SMILES IDX 4 1 5 2 6 3 8 4 10 5 19 6 2 7 1 8 3 9 7 11 11 13 12 14 13 15
REMARK SMILES IDX 14 16 18 17 15 18 17 19 16 20 9 21
REMARK H PARENT 3 10 7 12 9 22
ROOT
ATOM      1  C   UNL     1      26.435   0.770  53.828  1.00  0.00    +0.064 A 
ATOM      2  C   UNL     1      27.162   1.675  53.047  1.00  0.00    +0.065 A 
ATOM      3  C   UNL     1      26.537   2.299  51.978  1.00  0.00    +0.158 A 
ATOM      4  C   UNL     1      25.202   2.040  51.669  1.00  0.00    +0.164 A 
ATOM      5  C   UNL     1      24.459   1.141  52.445  1.00  0.00    +0.021 A 
ATOM      6  C   UNL     1      25.088   0.504  53.526  1.00  0.00    +0.028 A 
ENDROOT
BRANCH   1   7
ATOM      7  C   UNL     1      27.126   0.115  54.964  1.00  0.00    +0.335 C 
ATOM      8  O   UNL     1      26.754   0.111  56.123  1.00  0.00    -0.246 OA
BRANCH   7   9
ATOM      9  O   UNL     1      28.257  -0.510  54.595  1.00  0.00    -0.478 OA
ATOM     10  H   UNL     1      28.966   0.036  54.996  1.00  0.00    +0.297 HD
ENDBRANCH   7   9
ENDBRANCH   1   7
BRANCH   3  11
ATOM     11  O   UNL     1      27.251   3.181  51.215  1.00  0.00    -0.504 OA
ATOM     12  H   UNL     1      28.030   3.405  51.763  1.00  0.00    +0.293 HD
ENDBRANCH   3  11
BRANCH   5  13
ATOM     13  C   UNL     1      23.049   0.850  52.180  1.00  0.00    +0.014 C 
ATOM     14  C   UNL     1      22.297   0.165  53.058  1.00  0.00    +0.029 C 
BRANCH  14  15
ATOM     15  C   UNL     1      20.876  -0.143  52.843  1.00  0.00    +0.063 A 
ATOM     16  C   UNL     1      20.225   0.316  51.701  1.00  0.00    +0.028 A 
ATOM     17  N   UNL     1      20.255  -0.894  53.781  1.00  0.00    -0.257 NA
ATOM     18  C   UNL     1      18.881  -0.001  51.520  1.00  0.00    +0.004 A 
ATOM     19  C   UNL     1      18.950  -1.185  53.581  1.00  0.00    +0.111 A 
ATOM     20  C   UNL     1      18.228  -0.766  52.477  1.00  0.00    +0.020 A 
ENDBRANCH  14  15
ENDBRANCH   5  13
BRANCH   4  21
ATOM     21  O   UNL     1      24.684   2.700  50.583  1.00  0.00    -0.504 OA
ATOM     22  H   UNL     1      25.335   3.371  50.305  1.00  0.00    +0.293 HD
ENDBRANCH   4  21
TORSDOF 6
ENDMDL
MODEL 6
REMARK VINA RESULT:    -6.943      4.309      7.129
REMARK INTER + INTRA:          -9.178
REMARK INTER:                  -8.733
REMARK INTRA:                  -0.445
REMARK UNBOUND:                -0.408
REMARK SMILES O=C(O)c1cc(O)c(O)c(C=Cc2ccccn2)c1
REMARK SMILES IDX 4 1 5 2 6 3 8 4 10 5 19 6 2 7 1 8 3 9 7 11 11 13 12 14 13 15
REMARK SMILES IDX 14 16 18 17 15 18 17 19 16 20 9 21
REMARK H PARENT 3 10 7 12 9 22
ROOT
ATOM      1  C   UNL     1      20.784  -0.501  53.377  1.00  0.00    +0.064 A 
ATOM      2  C   UNL     1      21.245  -1.235  54.476  1.00  0.00    +0.065 A 
ATOM      3  C   UNL     1      22.599  -1.221  54.777  1.00  0.00    +0.158 A 
ATOM      4  C   UNL     1      23.503  -0.491  54.007  1.00  0.00    +0.164 A 
ATOM      5  C   UNL     1      23.056   0.253  52.908  1.00  0.00    +0.021 A 
ATOM      6  C   UNL     1      21.688   0.239  52.597  1.00  0.00    +0.028 A 
ENDROOT
BRANCH   1   7
ATOM      7  C   UNL     1      19.333  -0.533  53.075  1.00  0.00    +0.335 C 
ATOM      8  O   UNL     1      18.792  -0.039  52.104  1.00  0.00    -0.246 OA
BRANCH   7   9
ATOM      9  O   UNL     1      18.622  -1.189  54.009  1.00  0.00    -0.478 OA
ATOM     10  H   UNL     1      17.694  -0.930  53.819  1.00  0.00    +0.297 HD
ENDBRANCH   7   9
ENDBRANCH   1   7
BRANCH   3  11
ATOM     11  O   UNL     1      23.047  -1.942  55.849  1.00  0.00    -0.504 OA
ATOM     12  H   UNL     1      23.086  -1.294  56.582  1.00  0.00    +0.293 HD
ENDBRANCH   3  11
BRANCH   5  13
ATOM     13  C   UNL     1      23.958   1.055  52.080  1.00  0.00    +0.014 C 
ATOM     14  C   UNL     1      23.721   2.355  51.839  1.00  0.00    +0.029 C 
BRANCH  14  15
ATOM     15  C   UNL     1      24.601   3.204  51.024  1.00  0.00    +0.063 A 
ATOM     16  C   UNL     1      25.783   2.688  50.500  1.00  0.00    +0.028 A 
ATOM     17  N   UNL     1      24.201   4.477  50.800  1.00  0.00    -0.257 NA
ATOM     18  C   UNL     1      26.591   3.514  49.723  1.00  0.00    +0.004 A 
ATOM     19  C   UNL     1      25.005   5.257  50.043  1.00  0.00    +0.111 A 
ATOM     20  C   UNL     1      26.198   4.825  49.488  1.00  0.00    +0.020 A 
ENDBRANCH  14  15
ENDBRANCH   5  13
BRANCH   4  21
ATOM     21  O   UNL     1      24.822  -0.556  54.383  1.00  0.00    -0.504 OA
ATOM     22  H   UNL     1      25.328   0.040  53.801  1.00  0.00    +0.293 HD
ENDBRANCH   4  21
TORSDOF 6
ENDMDL
MODEL 7
REMARK VINA RESULT:    -6.938      1.939      2.335
REMARK INTER + INTRA:          -9.170
REMARK INTER:                  -8.770
REMARK INTRA:                  -0.400
REMARK UNBOUND:                -0.408
REMARK SMILES O=C(O)c1cc(O)c(O)c(C=Cc2ccccn2)c1
REMARK SMILES IDX 4 1 5 2 6 3 8 4 10 5 19 6 2 7 1 8 3 9 7 11 11 13 12 14 13 15
REMARK SMILES IDX 14 16 18 17 15 18 17 19 16 20 9 21
REMARK H PARENT 3 10 7 12 9 22
ROOT
ATOM      1  C   UNL     1      27.916  -1.113  53.338  1.00  0.00    +0.064 A 
ATOM      2  C   UNL     1      29.018  -0.309  53.649  1.00  0.00    +0.065 A 
ATOM      3  C   UNL     1      28.817   1.035  53.922  1.00  0.00    +0.158 A 
ATOM      4  C   UNL     1      27.541   1.597  53.893  1.00  0.00    +0.164 A 
ATOM      5  C   UNL     1      26.428   0.804  53.590  1.00  0.00    +0.021 A 
ATOM      6  C   UNL     1      26.625  -0.556  53.308  1.00  0.00    +0.028 A 
ENDROOT
BRANCH   1   7
ATOM      7  C   UNL     1      28.157  -2.547  53.049  1.00  0.00    +0.335 C 
ATOM      8  O   UNL     1      29.048  -3.232  53.515  1.00  0.00    -0.246 OA
BRANCH   7   9
ATOM      9  O   UNL     1      27.264  -3.061  52.185  1.00  0.00    -0.478 OA
ATOM     10  H   UNL     1      27.800  -3.260  51.388  1.00  0.00    +0.297 HD
ENDBRANCH   7   9
ENDBRANCH   1   7
BRANCH   3  11
ATOM     11  O   UNL     1      29.897   1.819  54.223  1.00  0.00    -0.504 OA
ATOM     12  H   UNL     1      29.789   2.033  55.172  1.00  0.00    +0.293 HD
ENDBRANCH   3  11
BRANCH   5  13
ATOM     13  C   UNL     1      25.064   1.336  53.567  1.00  0.00    +0.014 C 
ATOM     14  C   UNL     1      24.566   1.944  52.477  1.00  0.00    +0.029 C 
BRANCH  14  15
ATOM     15  C   UNL     1      23.201   2.485  52.401  1.00  0.00    +0.063 A 
ATOM     16  C   UNL     1      22.105   1.628  52.455  1.00  0.00    +0.028 A 
ATOM     17  N   UNL     1      23.071   3.827  52.298  1.00  0.00    -0.257 NA
ATOM     18  C   UNL     1      20.824   2.172  52.391  1.00  0.00    +0.004 A 
ATOM     19  C   UNL     1      21.816   4.327  52.236  1.00  0.00    +0.111 A 
ATOM     20  C   UNL     1      20.673   3.547  52.278  1.00  0.00    +0.020 A 
ENDBRANCH  14  15
ENDBRANCH   5  13
BRANCH   4  21
ATOM     21  O   UNL     1      27.455   2.939  54.166  1.00  0.00    -0.504 OA
ATOM     22  H   UNL     1      28.363   3.289  54.227  1.00  0.00    +0.293 HD
ENDBRANCH   4  21
TORSDOF 6
ENDMDL
MODEL 8
REMARK VINA RESULT:    -6.701      4.333      6.655
REMARK INTER + INTRA:          -8.872
REMARK INTER:                  -8.443
REMARK INTRA:                  -0.429
REMARK UNBOUND:                -0.408
REMARK SMILES O=C(O)c1cc(O)c(O)c(C=Cc2ccccn2)c1
REMARK SMILES IDX 4 1 5 2 6 3 8 4 10 5 19 6 2 7 1 8 3 9 7 11 11 13 12 14 13 15
REMARK SMILES IDX 14 16 18 17 15 18 17 19 16 20 9 21
REMARK H PARENT 3 10 7 12 9 22
ROOT
ATOM      1  C   UNL     1      23.280  -0.541  54.188  1.00  0.00    +0.064 A 
ATOM      2  C   UNL     1      21.891  -0.668  54.060  1.00  0.00    +0.065 A 
ATOM      3  C   UNL     1      21.244   0.005  53.035  1.00  0.00    +0.158 A 
ATOM      4  C   UNL     1      21.950   0.800  52.133  1.00  0.00    +0.164 A 
ATOM      5  C   UNL     1      23.339   0.931  52.243  1.00  0.00    +0.021 A 
ATOM      6  C   UNL     1      23.999   0.257  53.282  1.00  0.00    +0.028 A 
ENDROOT
BRANCH   1   7
ATOM      7  C   UNL     1      23.949  -1.269  55.293  1.00  0.00    +0.335 C 
ATOM      8  O   UNL     1      25.136  -1.236  55.557  1.00  0.00    -0.246 OA
BRANCH   7   9
ATOM      9  O   UNL     1      23.094  -2.006  56.023  1.00  0.00    -0.478 OA
ATOM     10  H   UNL     1      22.212  -1.660  55.767  1.00  0.00    +0.297 HD
ENDBRANCH   7   9
ENDBRANCH   1   7
BRANCH   3  11
ATOM     11  O   UNL     1      19.888  -0.119  52.915  1.00  0.00    -0.504 OA
ATOM     12  H   UNL     1      19.578   0.782  52.690  1.00  0.00    +0.293 HD
ENDBRANCH   3  11
BRANCH   5  13
ATOM     13  C   UNL     1      24.132   1.734  51.311  1.00  0.00    +0.014 C 
ATOM     14  C   UNL     1      24.401   3.028  51.552  1.00  0.00    +0.029 C 
BRANCH  14  15
ATOM     15  C   UNL     1      25.199   3.873  50.653  1.00  0.00    +0.063 A 
ATOM     16  C   UNL     1      26.281   3.333  49.963  1.00  0.00    +0.028 A 
ATOM     17  N   UNL     1      24.825   5.167  50.521  1.00  0.00    -0.257 NA
ATOM     18  C   UNL     1      27.012   4.157  49.110  1.00  0.00    +0.004 A 
ATOM     19  C   UNL     1      25.553   5.943  49.688  1.00  0.00    +0.111 A 
ATOM     20  C   UNL     1      26.645   5.488  48.968  1.00  0.00    +0.020 A 
ENDBRANCH  14  15
ENDBRANCH   5  13
BRANCH   4  21
ATOM     21  O   UNL     1      21.210   1.432  51.164  1.00  0.00    -0.504 OA
ATOM     22  H   UNL     1      21.618   1.231  50.301  1.00  0.00    +0.293 HD
ENDBRANCH   4  21
TORSDOF 6
ENDMDL
MODEL 9
REMARK VINA RESULT:    -6.624      2.816      4.552
REMARK INTER + INTRA:          -8.775
REMARK INTER:                  -8.341
REMARK INTRA:                  -0.434
REMARK UNBOUND:                -0.408
REMARK SMILES O=C(O)c1cc(O)c(O)c(C=Cc2ccccn2)c1
REMARK SMILES IDX 4 1 5 2 6 3 8 4 10 5 19 6 2 7 1 8 3 9 7 11 11 13 12 14 13 15
REMARK SMILES IDX 14 16 18 17 15 18 17 19 16 20 9 21
REMARK H PARENT 3 10 7 12 9 22
ROOT
ATOM      1  C   UNL     1      25.058   0.641  53.289  1.00  0.00    +0.064 A 
ATOM      2  C   UNL     1      25.511  -0.109  54.380  1.00  0.00    +0.065 A 
ATOM      3  C   UNL     1      24.615  -0.918  55.062  1.00  0.00    +0.158 A 
ATOM      4  C   UNL     1      23.276  -0.997  54.679  1.00  0.00    +0.164 A 
ATOM      5  C   UNL     1      22.809  -0.257  53.585  1.00  0.00    +0.021 A 
ATOM      6  C   UNL     1      23.711   0.567  52.895  1.00  0.00    +0.028 A 
ENDROOT
BRANCH   1   7
ATOM      7  C   UNL     1      26.035   1.500  52.577  1.00  0.00    +0.335 C 
ATOM      8  O   UNL     1      26.428   1.344  51.436  1.00  0.00    -0.246 OA
BRANCH   7   9
ATOM      9  O   UNL     1      26.476   2.521  53.332  1.00  0.00    -0.478 OA
ATOM     10  H   UNL     1      25.699   3.117  53.394  1.00  0.00    +0.297 HD
ENDBRANCH   7   9
ENDBRANCH   1   7
BRANCH   3  11
ATOM     11  O   UNL     1      25.060  -1.647  56.129  1.00  0.00    -0.504 OA
ATOM     12  H   UNL     1      24.609  -1.252  56.903  1.00  0.00    +0.293 HD
ENDBRANCH   3  11
BRANCH   5  13
ATOM     13  C   UNL     1      21.420  -0.320  53.127  1.00  0.00    +0.014 C 
ATOM     14  C   UNL     1      21.025   0.291  51.998  1.00  0.00    +0.029 C 
BRANCH  14  15
ATOM     15  C   UNL     1      19.647   0.249  51.491  1.00  0.00    +0.063 A 
ATOM     16  C   UNL     1      18.675  -0.485  52.166  1.00  0.00    +0.028 A 
ATOM     17  N   UNL     1      19.375   0.959  50.372  1.00  0.00    -0.257 NA
ATOM     18  C   UNL     1      17.375  -0.496  51.667  1.00  0.00    +0.004 A 
ATOM     19  C   UNL     1      18.105   0.928  49.909  1.00  0.00    +0.111 A 
ATOM     20  C   UNL     1      17.081   0.222  50.515  1.00  0.00    +0.020 A 
ENDBRANCH  14  15
ENDBRANCH   5  13
BRANCH   4  21
ATOM     21  O   UNL     1      22.471  -1.817  55.429  1.00  0.00    -0.504 OA
ATOM     22  H   UNL     1      22.108  -1.288  56.164  1.00  0.00    +0.293 HD
ENDBRANCH   4  21
TORSDOF 6
ENDMDL
