MODEL 1
REMARK VINA RESULT:    -6.933      0.000      0.000
REMARK INTER + INTRA:          -8.227
REMARK INTER:                  -7.947
REMARK INTRA:                  -0.280
REMARK UNBOUND:                -0.280
REMARK SMILES Oc1cc(-c2ccccc2)cc(O)c1O
REMARK SMILES IDX 2 1 3 2 4 3 11 4 12 5 14 6 1 7 15 9 5 11 6 12 10 13 7 14
REMARK SMILES IDX 9 15 8 16 13 17
REMARK H PARENT 1 8 15 10 13 18
ROOT
ATOM      1  C   UNL     1      26.906   1.889  52.442  1.00  0.00    +0.162 A 
ATOM      2  C   UNL     1      25.577   1.479  52.537  1.00  0.00    +0.059 A 
ATOM      3  C   UNL     1      25.220   0.414  53.389  1.00  0.00    -0.011 A 
ATOM      4  C   UNL     1      26.232  -0.219  54.138  1.00  0.00    +0.059 A 
ATOM      5  C   UNL     1      27.552   0.204  54.032  1.00  0.00    +0.162 A 
ATOM      6  C   UNL     1      27.888   1.253  53.189  1.00  0.00    +0.200 A 
ENDROOT
BRANCH   1   7
ATOM      7  O   UNL     1      27.292   2.914  51.624  1.00  0.00    -0.504 OA
ATOM      8  H   UNL     1      26.491   3.328  51.257  1.00  0.00    +0.293 HD
ENDBRANCH   1   7
BRANCH   6   9
ATOM      9  O   UNL     1      29.194   1.648  53.104  1.00  0.00    -0.502 OA
ATOM     10  H   UNL     1      29.141   2.588  52.835  1.00  0.00    +0.293 HD
ENDBRANCH   6   9
BRANCH   3  11
ATOM     11  C   UNL     1      23.819  -0.028  53.494  1.00  0.00    -0.018 A 
ATOM     12  C   UNL     1      23.404  -0.885  54.526  1.00  0.00    +0.009 A 
ATOM     13  C   UNL     1      22.857   0.397  52.562  1.00  0.00    +0.009 A 
ATOM     14  C   UNL     1      22.074  -1.301  54.626  1.00  0.00    +0.001 A 
ATOM     15  C   UNL     1      21.527  -0.018  52.660  1.00  0.00    +0.001 A 
ATOM     16  C   UNL     1      21.135  -0.867  53.693  1.00  0.00    +0.000 A 
ENDBRANCH   3  11
BRANCH   5  17
ATOM     17  O   UNL     1      28.519  -0.421  54.765  1.00  0.00    -0.504 OA
ATOM     18  H   UNL     1      28.929   0.295  55.291  1.00  0.00    +0.293 HD
ENDBRANCH   5  17
TORSDOF 4
ENDMDL
MODEL 2
REMARK VINA RESULT:    -6.920      0.069      2.135
REMARK INTER + INTRA:          -8.212
REMARK INTER:                  -7.932
REMARK INTRA:                  -0.280
REMARK UNBOUND:                -0.280
REMARK SMILES Oc1cc(-c2ccccc2)cc(O)c1O
REMARK SMILES IDX 2 1 3 2 4 3 11 4 12 5 14 6 1 7 15 9 5 11 6 12 10 13 7 14
REMARK SMILES IDX 9 15 8 16 13 17
REMARK H PARENT 1 8 15 10 13 18
ROOT
ATOM      1  C   UNL     1      27.551   0.197  54.113  1.00  0.00    +0.162 A 
ATOM      2  C   UNL     1      26.222  -0.214  54.188  1.00  0.00    +0.059 A 
ATOM      3  C   UNL     1      25.234   0.425  53.409  1.00  0.00    -0.011 A 
ATOM      4  C   UNL     1      25.624   1.479  52.560  1.00  0.00    +0.059 A 
ATOM      5  C   UNL     1      26.954   1.874  52.496  1.00  0.00    +0.162 A 
ATOM      6  C   UNL     1      27.914   1.237  53.268  1.00  0.00    +0.200 A 
ENDROOT
BRANCH   1   7
ATOM      7  O   UNL     1      28.536  -0.394  54.855  1.00  0.00    -0.504 OA
ATOM      8  H   UNL     1      28.578  -1.335  54.609  1.00  0.00    +0.293 HD
ENDBRANCH   1   7
BRANCH   6   9
ATOM      9  O   UNL     1      29.217   1.646  53.186  1.00  0.00    -0.502 OA
ATOM     10  H   UNL     1      29.154   2.592  52.939  1.00  0.00    +0.293 HD
ENDBRANCH   6   9
BRANCH   3  11
ATOM     11  C   UNL     1      23.826   0.000  53.485  1.00  0.00    -0.018 A 
ATOM     12  C   UNL     1      23.377  -0.841  54.516  1.00  0.00    +0.009 A 
ATOM     13  C   UNL     1      22.892   0.428  52.527  1.00  0.00    +0.009 A 
ATOM     14  C   UNL     1      22.040  -1.240  54.588  1.00  0.00    +0.001 A 
ATOM     15  C   UNL     1      21.554   0.030  52.598  1.00  0.00    +0.001 A 
ATOM     16  C   UNL     1      21.128  -0.804  53.630  1.00  0.00    +0.000 A 
ENDBRANCH   3  11
BRANCH   5  17
ATOM     17  O   UNL     1      27.314   2.897  51.667  1.00  0.00    -0.504 OA
ATOM     18  H   UNL     1      27.036   3.706  52.141  1.00  0.00    +0.293 HD
ENDBRANCH   5  17
TORSDOF 4
ENDMDL
MODEL 3
REMARK VINA RESULT:    -6.859      1.601      2.413
REMARK INTER + INTRA:          -8.141
REMARK INTER:                  -7.880
REMARK INTRA:                  -0.261
REMARK UNBOUND:                -0.280
REMARK SMILES Oc1cc(-c2ccccc2)cc(O)c1O
REMARK SMILES IDX 2 1 3 2 4 3 11 4 12 5 14 6 1 7 15 9 5 11 6 12 10 13 7 14
REMARK SMILES IDX 9 15 8 16 13 17
REMARK H PARENT 1 8 15 10 13 18
ROOT
ATOM      1  C   UNL     1      28.586   0.415  53.697  1.00  0.00    +0.162 A 
ATOM      2  C   UNL     1      27.266   0.793  53.459  1.00  0.00    +0.059 A 
ATOM      3  C   UNL     1      26.317  -0.161  53.037  1.00  0.00    -0.011 A 
ATOM      4  C   UNL     1      26.734  -1.496  52.865  1.00  0.00    +0.059 A 
ATOM      5  C   UNL     1      28.053  -1.856  53.108  1.00  0.00    +0.162 A 
ATOM      6  C   UNL     1      28.976  -0.906  53.522  1.00  0.00    +0.200 A 
ENDROOT
BRANCH   1   7
ATOM      7  O   UNL     1      29.536   1.311  54.102  1.00  0.00    -0.504 OA
ATOM      8  H   UNL     1      29.351   1.551  55.027  1.00  0.00    +0.293 HD
ENDBRANCH   1   7
BRANCH   6   9
ATOM      9  O   UNL     1      30.268  -1.288  53.754  1.00  0.00    -0.502 OA
ATOM     10  H   UNL     1      30.765  -0.922  52.992  1.00  0.00    +0.293 HD
ENDBRANCH   6   9
BRANCH   3  11
ATOM     11  C   UNL     1      24.920   0.231  52.780  1.00  0.00    -0.018 A 
ATOM     12  C   UNL     1      23.852  -0.470  53.363  1.00  0.00    +0.009 A 
ATOM     13  C   UNL     1      24.618   1.319  51.945  1.00  0.00    +0.009 A 
ATOM     14  C   UNL     1      22.527  -0.096  53.121  1.00  0.00    +0.001 A 
ATOM     15  C   UNL     1      23.295   1.696  51.703  1.00  0.00    +0.001 A 
ATOM     16  C   UNL     1      22.249   0.988  52.291  1.00  0.00    +0.000 A 
ENDBRANCH   3  11
BRANCH   5  17
ATOM     17  O   UNL     1      28.439  -3.153  52.937  1.00  0.00    -0.504 OA
ATOM     18  H   UNL     1      27.729  -3.551  52.393  1.00  0.00    +0.293 HD
ENDBRANCH   5  17
TORSDOF 4
ENDMDL
MODEL 4
REMARK VINA RESULT:    -6.825      1.591      3.029
REMARK INTER + INTRA:          -8.102
REMARK INTER:                  -7.839
REMARK INTRA:                  -0.263
REMARK UNBOUND:                -0.280
REMARK SMILES Oc1cc(-c2ccccc2)cc(O)c1O
REMARK SMILES IDX 2 1 3 2 4 3 11 4 12 5 14 6 1 7 15 9 5 11 6 12 10 13 7 14
REMARK SMILES IDX 9 15 8 16 13 17
REMARK H PARENT 1 8 15 10 13 18
ROOT
ATOM      1  C   UNL     1      28.069  -1.871  53.143  1.00  0.00    +0.162 A 
ATOM      2  C   UNL     1      26.742  -1.512  52.912  1.00  0.00    +0.059 A 
ATOM      3  C   UNL     1      26.341  -0.164  53.018  1.00  0.00    -0.011 A 
ATOM      4  C   UNL     1      27.307   0.802  53.359  1.00  0.00    +0.059 A 
ATOM      5  C   UNL     1      28.626   0.427  53.584  1.00  0.00    +0.162 A 
ATOM      6  C   UNL     1      29.006  -0.902  53.476  1.00  0.00    +0.200 A 
ENDROOT
BRANCH   1   7
ATOM      7  O   UNL     1      28.496  -3.166  53.055  1.00  0.00    -0.504 OA
ATOM      8  H   UNL     1      29.396  -3.165  52.683  1.00  0.00    +0.293 HD
ENDBRANCH   1   7
BRANCH   6   9
ATOM      9  O   UNL     1      30.311  -1.244  53.704  1.00  0.00    -0.502 OA
ATOM     10  H   UNL     1      30.284  -2.216  53.828  1.00  0.00    +0.293 HD
ENDBRANCH   6   9
BRANCH   3  11
ATOM     11  C   UNL     1      24.940   0.224  52.779  1.00  0.00    -0.018 A 
ATOM     12  C   UNL     1      24.620   1.310  51.949  1.00  0.00    +0.009 A 
ATOM     13  C   UNL     1      23.884  -0.485  53.375  1.00  0.00    +0.009 A 
ATOM     14  C   UNL     1      23.291   1.676  51.721  1.00  0.00    +0.001 A 
ATOM     15  C   UNL     1      22.554  -0.122  53.147  1.00  0.00    +0.001 A 
ATOM     16  C   UNL     1      22.258   0.959  52.319  1.00  0.00    +0.000 A 
ENDBRANCH   3  11
BRANCH   5  17
ATOM     17  O   UNL     1      29.549   1.377  53.913  1.00  0.00    -0.504 OA
ATOM     18  H   UNL     1      29.913   1.079  54.771  1.00  0.00    +0.293 HD
ENDBRANCH   5  17
TORSDOF 4
ENDMDL
MODEL 5
REMARK VINA RESULT:    -6.664      3.248      4.992
REMARK INTER + INTRA:          -7.918
REMARK INTER:                  -7.644
REMARK INTRA:                  -0.274
REMARK UNBOUND:                -0.280
REMARK SMILES Oc1cc(-c2ccccc2)cc(O)c1O
REMARK SMILES IDX 2 1 3 2 4 3 11 4 12 5 14 6 1 7 15 9 5 11 6 12 10 13 7 14
REMARK SMILES IDX 9 15 8 16 13 17
REMARK H PARENT 1 8 15 10 13 18
ROOT
ATOM      1  C   UNL     1      21.971  -0.961  54.364  1.00  0.00    +0.162 A 
ATOM      2  C   UNL     1      21.874  -0.194  53.205  1.00  0.00    +0.059 A 
ATOM      3  C   UNL     1      23.033   0.343  52.608  1.00  0.00    -0.011 A 
ATOM      4  C   UNL     1      24.282   0.084  53.207  1.00  0.00    +0.059 A 
ATOM      5  C   UNL     1      24.360  -0.686  54.362  1.00  0.00    +0.162 A 
ATOM      6  C   UNL     1      23.211  -1.206  54.938  1.00  0.00    +0.200 A 
ENDROOT
BRANCH   1   7
ATOM      7  O   UNL     1      20.870  -1.494  54.975  1.00  0.00    -0.504 OA
ATOM      8  H   UNL     1      20.362  -1.989  54.307  1.00  0.00    +0.293 HD
ENDBRANCH   1   7
BRANCH   6   9
ATOM      9  O   UNL     1      23.316  -1.959  56.074  1.00  0.00    -0.502 OA
ATOM     10  H   UNL     1      23.601  -2.839  55.752  1.00  0.00    +0.293 HD
ENDBRANCH   6   9
BRANCH   3  11
ATOM     11  C   UNL     1      22.941   1.159  51.385  1.00  0.00    -0.018 A 
ATOM     12  C   UNL     1      21.900   0.966  50.461  1.00  0.00    +0.009 A 
ATOM     13  C   UNL     1      23.891   2.156  51.109  1.00  0.00    +0.009 A 
ATOM     14  C   UNL     1      21.812   1.742  49.303  1.00  0.00    +0.001 A 
ATOM     15  C   UNL     1      23.804   2.934  49.952  1.00  0.00    +0.001 A 
ATOM     16  C   UNL     1      22.763   2.727  49.049  1.00  0.00    +0.000 A 
ENDBRANCH   3  11
BRANCH   5  17
ATOM     17  O   UNL     1      25.577  -0.927  54.928  1.00  0.00    -0.504 OA
ATOM     18  H   UNL     1      25.373  -1.412  55.753  1.00  0.00    +0.293 HD
ENDBRANCH   5  17
TORSDOF 4
ENDMDL
MODEL 6
REMARK VINA RESULT:    -6.658      3.332      5.125
REMARK INTER + INTRA:          -7.912
REMARK INTER:                  -7.638
REMARK INTRA:                  -0.273
REMARK UNBOUND:                -0.280
REMARK SMILES Oc1cc(-c2ccccc2)cc(O)c1O
REMARK SMILES IDX 2 1 3 2 4 3 11 4 12 5 14 6 1 7 15 9 5 11 6 12 10 13 7 14
REMARK SMILES IDX 9 15 8 16 13 17
REMARK H PARENT 1 8 15 10 13 18
ROOT
ATOM      1  C   UNL     1      24.158  -0.653  54.273  1.00  0.00    +0.162 A 
ATOM      2  C   UNL     1      24.007   0.057  53.084  1.00  0.00    +0.059 A 
ATOM      3  C   UNL     1      22.734   0.190  52.491  1.00  0.00    -0.011 A 
ATOM      4  C   UNL     1      21.629  -0.408  53.128  1.00  0.00    +0.059 A 
ATOM      5  C   UNL     1      21.798  -1.110  54.314  1.00  0.00    +0.162 A 
ATOM      6  C   UNL     1      23.055  -1.233  54.885  1.00  0.00    +0.200 A 
ENDROOT
BRANCH   1   7
ATOM      7  O   UNL     1      25.376  -0.808  54.876  1.00  0.00    -0.504 OA
ATOM      8  H   UNL     1      25.279  -1.460  55.592  1.00  0.00    +0.293 HD
ENDBRANCH   1   7
BRANCH   6   9
ATOM      9  O   UNL     1      23.194  -1.931  56.053  1.00  0.00    -0.502 OA
ATOM     10  H   UNL     1      22.926  -2.844  55.819  1.00  0.00    +0.293 HD
ENDBRANCH   6   9
BRANCH   3  11
ATOM     11  C   UNL     1      22.565   0.936  51.232  1.00  0.00    -0.018 A 
ATOM     12  C   UNL     1      23.408   2.011  50.907  1.00  0.00    +0.009 A 
ATOM     13  C   UNL     1      21.556   0.589  50.319  1.00  0.00    +0.009 A 
ATOM     14  C   UNL     1      23.249   2.715  49.711  1.00  0.00    +0.001 A 
ATOM     15  C   UNL     1      21.395   1.292  49.122  1.00  0.00    +0.001 A 
ATOM     16  C   UNL     1      22.243   2.355  48.818  1.00  0.00    +0.000 A 
ENDBRANCH   3  11
BRANCH   5  17
ATOM     17  O   UNL     1      20.715  -1.682  54.917  1.00  0.00    -0.504 OA
ATOM     18  H   UNL     1      20.172  -2.020  54.177  1.00  0.00    +0.293 HD
ENDBRANCH   5  17
TORSDOF 4
ENDMDL
MODEL 7
REMARK VINA RESULT:    -6.372      3.296      5.411
REMARK INTER + INTRA:          -7.583
REMARK INTER:                  -7.335
REMARK INTRA:                  -0.248
REMARK UNBOUND:                -0.280
REMARK SMILES Oc1cc(-c2ccccc2)cc(O)c1O
REMARK SMILES IDX 2 1 3 2 4 3 11 4 12 5 14 6 1 7 15 9 5 11 6 12 10 13 7 14
REMARK SMILES IDX 9 15 8 16 13 17
REMARK H PARENT 1 8 15 10 13 18
ROOT
ATOM      1  C   UNL     1      22.342   1.137  52.797  1.00  0.00    +0.162 A 
ATOM      2  C   UNL     1      23.722   0.947  52.846  1.00  0.00    +0.059 A 
ATOM      3  C   UNL     1      24.272  -0.076  53.646  1.00  0.00    -0.011 A 
ATOM      4  C   UNL     1      23.398  -0.895  54.388  1.00  0.00    +0.059 A 
ATOM      5  C   UNL     1      22.024  -0.693  54.326  1.00  0.00    +0.162 A 
ATOM      6  C   UNL     1      21.498   0.317  53.535  1.00  0.00    +0.200 A 
ENDROOT
BRANCH   1   7
ATOM      7  O   UNL     1      21.771   2.120  52.038  1.00  0.00    -0.504 OA
ATOM      8  H   UNL     1      22.420   2.400  51.367  1.00  0.00    +0.293 HD
ENDBRANCH   1   7
BRANCH   6   9
ATOM      9  O   UNL     1      20.143   0.495  53.493  1.00  0.00    -0.502 OA
ATOM     10  H   UNL     1      19.990   0.969  52.649  1.00  0.00    +0.293 HD
ENDBRANCH   6   9
BRANCH   3  11
ATOM     11  C   UNL     1      25.729  -0.282  53.707  1.00  0.00    -0.018 A 
ATOM     12  C   UNL     1      26.515   0.379  54.665  1.00  0.00    +0.009 A 
ATOM     13  C   UNL     1      26.373  -1.148  52.808  1.00  0.00    +0.009 A 
ATOM     14  C   UNL     1      27.897   0.180  54.723  1.00  0.00    +0.001 A 
ATOM     15  C   UNL     1      27.755  -1.348  52.865  1.00  0.00    +0.001 A 
ATOM     16  C   UNL     1      28.517  -0.684  53.824  1.00  0.00    +0.000 A 
ENDBRANCH   3  11
BRANCH   5  17
ATOM     17  O   UNL     1      21.193  -1.496  55.050  1.00  0.00    -0.504 OA
ATOM     18  H   UNL     1      21.209  -1.117  55.952  1.00  0.00    +0.293 HD
ENDBRANCH   5  17
TORSDOF 4
ENDMDL
MODEL 8
REMARK VINA RESULT:    -6.304      3.686      5.738
REMARK INTER + INTRA:          -7.505
REMARK INTER:                  -7.227
REMARK INTRA:                  -0.278
REMARK UNBOUND:                -0.280
REMARK SMILES Oc1cc(-c2ccccc2)cc(O)c1O
REMARK SMILES IDX 2 1 3 2 4 3 11 4 12 5 14 6 1 7 15 9 5 11 6 12 10 13 7 14
REMARK SMILES IDX 9 15 8 16 13 17
REMARK H PARENT 1 8 15 10 13 18
ROOT
ATOM      1  C   UNL     1      20.778  -0.126  52.712  1.00  0.00    +0.162 A 
ATOM      2  C   UNL     1      21.901   0.510  52.187  1.00  0.00    +0.059 A 
ATOM      3  C   UNL     1      23.172   0.301  52.763  1.00  0.00    -0.011 A 
ATOM      4  C   UNL     1      23.275  -0.562  53.872  1.00  0.00    +0.059 A 
ATOM      5  C   UNL     1      22.145  -1.190  54.380  1.00  0.00    +0.162 A 
ATOM      6  C   UNL     1      20.902  -0.974  53.804  1.00  0.00    +0.200 A 
ENDROOT
BRANCH   1   7
ATOM      7  O   UNL     1      19.530   0.055  52.185  1.00  0.00    -0.504 OA
ATOM      8  H   UNL     1      19.460   0.977  51.879  1.00  0.00    +0.293 HD
ENDBRANCH   1   7
BRANCH   6   9
ATOM      9  O   UNL     1      19.806  -1.605  54.325  1.00  0.00    -0.502 OA
ATOM     10  H   UNL     1      19.143  -1.564  53.604  1.00  0.00    +0.293 HD
ENDBRANCH   6   9
BRANCH   3  11
ATOM     11  C   UNL     1      24.364   0.973  52.218  1.00  0.00    -0.018 A 
ATOM     12  C   UNL     1      25.654   0.479  52.473  1.00  0.00    +0.009 A 
ATOM     13  C   UNL     1      24.243   2.126  51.425  1.00  0.00    +0.009 A 
ATOM     14  C   UNL     1      26.784   1.116  51.953  1.00  0.00    +0.001 A 
ATOM     15  C   UNL     1      25.372   2.763  50.904  1.00  0.00    +0.001 A 
ATOM     16  C   UNL     1      26.643   2.257  51.168  1.00  0.00    +0.000 A 
ENDBRANCH   3  11
BRANCH   5  17
ATOM     17  O   UNL     1      22.264  -2.023  55.455  1.00  0.00    -0.504 OA
ATOM     18  H   UNL     1      22.732  -1.490  56.129  1.00  0.00    +0.293 HD
ENDBRANCH   5  17
TORSDOF 4
ENDMDL
MODEL 9
REMARK VINA RESULT:    -6.304      1.707      2.958
REMARK INTER + INTRA:          -7.505
REMARK INTER:                  -7.224
REMARK INTRA:                  -0.281
REMARK UNBOUND:                -0.280
REMARK SMILES Oc1cc(-c2ccccc2)cc(O)c1O
REMARK SMILES IDX 2 1 3 2 4 3 11 4 12 5 14 6 1 7 15 9 5 11 6 12 10 13 7 14
REMARK SMILES IDX 9 15 8 16 13 17
REMARK H PARENT 1 8 15 10 13 18
ROOT
ATOM      1  C   UNL     1      25.501   0.326  53.123  1.00  0.00    +0.162 A 
ATOM      2  C   UNL     1      24.197   0.418  52.642  1.00  0.00    +0.059 A 
ATOM      3  C   UNL     1      23.136  -0.195  53.341  1.00  0.00    -0.011 A 
ATOM      4  C   UNL     1      23.427  -0.895  54.529  1.00  0.00    +0.059 A 
ATOM      5  C   UNL     1      24.733  -0.975  54.995  1.00  0.00    +0.162 A 
ATOM      6  C   UNL     1      25.766  -0.368  54.297  1.00  0.00    +0.200 A 
ENDROOT
BRANCH   1   7
ATOM      7  O   UNL     1      26.556   0.902  52.472  1.00  0.00    -0.504 OA
ATOM      8  H   UNL     1      26.427   0.777  51.515  1.00  0.00    +0.293 HD
ENDBRANCH   1   7
BRANCH   6   9
ATOM      9  O   UNL     1      27.043  -0.462  54.777  1.00  0.00    -0.502 OA
ATOM     10  H   UNL     1      27.441   0.409  54.569  1.00  0.00    +0.293 HD
ENDBRANCH   6   9
BRANCH   3  11
ATOM     11  C   UNL     1      21.754  -0.107  52.839  1.00  0.00    -0.018 A 
ATOM     12  C   UNL     1      21.473   0.461  51.586  1.00  0.00    +0.009 A 
ATOM     13  C   UNL     1      20.677  -0.591  53.601  1.00  0.00    +0.009 A 
ATOM     14  C   UNL     1      20.162   0.541  51.109  1.00  0.00    +0.001 A 
ATOM     15  C   UNL     1      19.366  -0.512  53.126  1.00  0.00    +0.001 A 
ATOM     16  C   UNL     1      19.109   0.054  51.879  1.00  0.00    +0.000 A 
ENDBRANCH   3  11
BRANCH   5  17
ATOM     17  O   UNL     1      24.996  -1.657  56.147  1.00  0.00    -0.504 OA
ATOM     18  H   UNL     1      24.258  -1.422  56.745  1.00  0.00    +0.293 HD
ENDBRANCH   5  17
TORSDOF 4
ENDMDL
