REMARK SMILES N#CC(C#N)=C(N)C(C#N)=C1C(=O)Nc2ncnc(-c3cccc(Br)c3)c21
REMARK SMILES IDX 8 1 9 2 10 3 11 4 12 5 13 6 14 7 15 8 16 9 17 10 18 11 19 12
REMARK SMILES IDX 27 13 6 15 1 16 2 17 3 18 4 19 5 20 7 21 20 24 21 25 26 26
REMARK SMILES IDX 22 27 24 28 23 29 25 30
REMARK H PARENT 14 14 7 22 7 23
ROOT
ATOM      1  C   UNL     1       1.377  -0.357  -0.161  1.00  0.00    +0.091 C 
ATOM      2  C   UNL     1       0.644  -1.585  -0.121  1.00  0.00    +0.102 C 
ATOM      3  N   UNL     1       0.107  -2.613  -0.139  1.00  0.00    -0.192 NA
ATOM      4  C   UNL     1       0.793   0.830  -0.436  1.00  0.00    +0.073 C 
ATOM      5  C   UNL     1       1.632   2.043  -0.774  1.00  0.00    +0.259 C 
ATOM      6  O   UNL     1       2.827   2.188  -0.617  1.00  0.00    -0.269 OA
ATOM      7  N   UNL     1       0.757   2.939  -1.334  1.00  0.00    -0.306 N 
ATOM      8  C   UNL     1      -0.548   2.478  -1.288  1.00  0.00    +0.145 A 
ATOM      9  N   UNL     1      -1.571   3.217  -1.714  1.00  0.00    -0.218 NA
ATOM     10  C   UNL     1      -2.759   2.652  -1.488  1.00  0.00    +0.224 A 
ATOM     11  N   UNL     1      -2.966   1.493  -0.839  1.00  0.00    -0.236 NA
ATOM     12  C   UNL     1      -1.881   0.803  -0.395  1.00  0.00    +0.084 A 
ATOM     13  C   UNL     1      -0.606   1.233  -0.679  1.00  0.00    +0.058 A 
ATOM     14  H   UNL     1       1.008   3.851  -1.683  1.00  0.00    +0.171 HD
ENDROOT
BRANCH   1  15
ATOM     15  C   UNL     1       2.839  -0.537   0.011  1.00  0.00    +0.079 C 
ATOM     16  N   UNL     1       6.194  -1.055  -0.738  1.00  0.00    -0.192 NA
ATOM     17  C   UNL     1       5.052  -0.918  -0.898  1.00  0.00    +0.113 C 
ATOM     18  C   UNL     1       3.650  -0.742  -1.063  1.00  0.00    +0.153 C 
ATOM     19  C   UNL     1       3.140  -0.768  -2.393  1.00  0.00    +0.113 C 
ATOM     20  N   UNL     1       2.670  -0.768  -3.454  1.00  0.00    -0.192 NA
BRANCH  15  21
ATOM     21  N   UNL     1       3.272  -0.482   1.336  1.00  0.00    -0.396 N 
ATOM     22  H   UNL     1       4.272  -0.313   1.462  1.00  0.00    +0.156 HD
ATOM     23  H   UNL     1       2.731   0.142   1.934  1.00  0.00    +0.156 HD
ENDBRANCH  15  21
ENDBRANCH   1  15
BRANCH  12  24
ATOM     24  C   UNL     1      -2.227  -0.309   0.496  1.00  0.00    +0.002 A 
ATOM     25  C   UNL     1      -3.078  -1.339   0.060  1.00  0.00    +0.010 A 
ATOM     26  C   UNL     1      -1.771  -0.342   1.826  1.00  0.00    +0.026 A 
ATOM     27  C   UNL     1      -3.433  -2.389   0.912  1.00  0.00    +0.002 A 
ATOM     28  C   UNL     1      -2.127  -1.395   2.671  1.00  0.00    +0.018 A 
ATOM     29  C   UNL     1      -2.952  -2.421   2.219  1.00  0.00    +0.016 A 
ATOM     30 Br   UNL     1      -1.479  -1.423   4.447  1.00  0.00    -0.051 Br
ENDBRANCH  12  24
TORSDOF 3
