REMARK SMILES CN1CCN(c2ccc(C=C(N)C(C#N)=C(C#N)C#N)[nH]2)CC1
REMARK SMILES IDX 6 1 7 2 8 3 9 4 21 5 5 7 2 8 3 9 23 10 4 11 22 12 1 13 10 14
REMARK SMILES IDX 11 15 12 16 13 19 14 20 16 21 15 22 17 23 19 24 18 25 20 26
REMARK H PARENT 21 6 12 17 12 18
ROOT
ATOM      1  C   UNL     1      -0.621  -0.961  -0.412  1.00  0.00    +0.106 A 
ATOM      2  C   UNL     1      -0.407  -2.135  -1.106  1.00  0.00    +0.047 A 
ATOM      3  C   UNL     1       0.993  -2.344  -1.203  1.00  0.00    +0.030 A 
ATOM      4  C   UNL     1       1.611  -1.314  -0.529  1.00  0.00    +0.042 A 
ATOM      5  N   UNL     1       0.619  -0.465  -0.089  1.00  0.00    -0.342 N 
ATOM      6  H   UNL     1       0.783   0.381   0.438  1.00  0.00    +0.168 HD
ENDROOT
BRANCH   1   7
ATOM      7  N   UNL     1      -1.764  -0.323  -0.042  1.00  0.00    -0.356 N 
ATOM      8  N   UNL     1      -4.321   1.105   0.616  1.00  0.00    -0.303 NA
ATOM      9  C   UNL     1      -3.129   1.760   0.036  1.00  0.00    +0.105 C 
ATOM     10  C   UNL     1      -4.138  -0.360   0.708  1.00  0.00    +0.105 C 
ATOM     11  C   UNL     1      -1.791   1.080   0.409  1.00  0.00    +0.133 C 
ATOM     12  C   UNL     1      -3.075  -0.964  -0.239  1.00  0.00    +0.133 C 
ATOM     13  C   UNL     1      -5.518   1.457  -0.143  1.00  0.00    +0.105 C 
ENDBRANCH   1   7
BRANCH   4  14
ATOM     14  C   UNL     1       2.969  -0.978  -0.306  1.00  0.00    +0.053 C 
ATOM     15  C   UNL     1       3.454  -0.598   0.896  1.00  0.00    +0.054 C 
BRANCH  15  16
ATOM     16  N   UNL     1       2.717  -0.536   2.070  1.00  0.00    -0.398 N 
ATOM     17  H   UNL     1       1.887  -1.134   2.031  1.00  0.00    +0.156 HD
ATOM     18  H   UNL     1       3.251  -0.767   2.907  1.00  0.00    +0.156 HD
ENDBRANCH  15  16
BRANCH  15  19
ATOM     19  C   UNL     1       4.851  -0.158   0.980  1.00  0.00    +0.103 C 
ATOM     20  C   UNL     1       5.834  -1.190   1.092  1.00  0.00    +0.103 C 
ATOM     21  C   UNL     1       5.194   1.149   0.947  1.00  0.00    +0.149 C 
ATOM     22  N   UNL     1       6.635  -2.023   1.185  1.00  0.00    -0.192 NA
ATOM     23  C   UNL     1       6.553   1.566   1.032  1.00  0.00    +0.112 C 
ATOM     24  C   UNL     1       4.205   2.167   0.819  1.00  0.00    +0.112 C 
ATOM     25  N   UNL     1       7.660   1.902   1.102  1.00  0.00    -0.192 NA
ATOM     26  N   UNL     1       3.398   2.993   0.698  1.00  0.00    -0.192 NA
ENDBRANCH  15  19
ENDBRANCH   4  14
TORSDOF 4
