REMARK SMILES Cc1cc(-c2ccc(O)c([N+](=O)[O-])c2)[nH]c1-c1ccc(O)cc1
REMARK SMILES IDX 1 1 2 2 3 3 4 4 15 5 16 6 17 8 18 9 23 10 19 11 22 12 20 13
REMARK SMILES IDX 21 14 5 16 6 17 14 18 7 19 10 20 8 21 11 22 12 23 13 24 9 25
REMARK H PARENT 15 7 21 15 9 26
ROOT
ATOM      1  C   UNL     1      -2.020  -2.398  -1.949  1.00  0.00    +0.047 C 
ATOM      2  C   UNL     1      -1.043  -1.505  -1.268  1.00  0.00    -0.025 A 
ATOM      3  C   UNL     1       0.375  -1.601  -1.360  1.00  0.00    +0.032 A 
ATOM      4  C   UNL     1       0.940  -0.597  -0.593  1.00  0.00    +0.046 A 
ATOM      5  N   UNL     1      -0.113   0.108  -0.054  1.00  0.00    -0.354 N 
ATOM      6  C   UNL     1      -1.321  -0.425  -0.443  1.00  0.00    +0.049 A 
ATOM      7  H   UNL     1      -0.021   0.912   0.551  1.00  0.00    +0.167 HD
ENDROOT
BRANCH   6   8
ATOM      8  C   UNL     1      -2.591   0.136   0.014  1.00  0.00    -0.002 A 
ATOM      9  C   UNL     1      -3.542  -0.679   0.638  1.00  0.00    +0.014 A 
ATOM     10  C   UNL     1      -2.870   1.499  -0.159  1.00  0.00    +0.014 A 
ATOM     11  C   UNL     1      -4.752  -0.141   1.083  1.00  0.00    +0.047 A 
ATOM     12  C   UNL     1      -4.081   2.039   0.283  1.00  0.00    +0.047 A 
ATOM     13  C   UNL     1      -5.012   1.211   0.902  1.00  0.00    +0.115 A 
BRANCH  13  14
ATOM     14  O   UNL     1      -6.206   1.694   1.349  1.00  0.00    -0.508 OA
ATOM     15  H   UNL     1      -6.251   2.644   1.151  1.00  0.00    +0.293 HD
ENDBRANCH  13  14
ENDBRANCH   6   8
BRANCH   4  16
ATOM     16  C   UNL     1       2.342  -0.255  -0.356  1.00  0.00    +0.005 A 
ATOM     17  C   UNL     1       3.295  -0.436  -1.372  1.00  0.00    +0.014 A 
ATOM     18  C   UNL     1       2.764   0.250   0.878  1.00  0.00    +0.100 A 
ATOM     19  C   UNL     1       4.643  -0.107  -1.173  1.00  0.00    +0.054 A 
ATOM     20  C   UNL     1       4.117   0.568   1.069  1.00  0.00    +0.311 A 
ATOM     21  C   UNL     1       5.058   0.404   0.053  1.00  0.00    +0.194 A 
BRANCH  20  22
ATOM     22  N   UNL     1       4.516   1.081   2.363  1.00  0.00    +0.066 N 
ATOM     23  O   UNL     1       5.345   0.429   3.011  1.00  0.00    -0.258 OA
ATOM     24  O   UNL     1       3.944   2.110   2.754  1.00  0.00    -0.258 OA
ENDBRANCH  20  22
BRANCH  21  25
ATOM     25  O   UNL     1       6.361   0.759   0.237  1.00  0.00    -0.502 OA
ATOM     26  H   UNL     1       6.887   0.502  -0.539  1.00  0.00    +0.293 HD
ENDBRANCH  21  25
ENDBRANCH   4  16
TORSDOF 5
