REMARK SMILES CCN(CC)CC/N=N/Nc1ccc2ncnc(-c3ccc(O)c([N+](=O)[O-])c3)c2c1
REMARK SMILES IDX 8 1 9 2 7 3 6 4 3 5 2 6 1 7 4 8 5 9 10 10 11 12 12 13 30 14
REMARK SMILES IDX 13 15 29 16 14 17 18 18 15 19 17 20 16 21 19 22 20 23 28 24
REMARK SMILES IDX 21 25 24 26 22 27 25 28 26 29 27 30 23 31
REMARK H PARENT 10 11 23 32
ROOT
ATOM      1  N   UNL     1       2.406  -0.432   1.357  1.00  0.00    -0.170 NA
ATOM      2  N   UNL     1       1.657  -1.390   1.093  1.00  0.00    -0.075 NA
ENDROOT
BRANCH   1   3
ATOM      3  C   UNL     1       3.756  -0.871   1.744  1.00  0.00    +0.184 C 
BRANCH   3   4
ATOM      4  C   UNL     1       4.662  -1.062   0.514  1.00  0.00    +0.110 C 
BRANCH   4   5
ATOM      5  N   UNL     1       5.311   0.169  -0.000  1.00  0.00    -0.302 NA
BRANCH   5   6
ATOM      6  C   UNL     1       6.372  -0.194  -0.958  1.00  0.00    +0.081 C 
ATOM      7  C   UNL     1       7.343   0.959  -1.205  1.00  0.00    +0.021 C 
ENDBRANCH   5   6
BRANCH   5   8
ATOM      8  C   UNL     1       4.336   1.096  -0.604  1.00  0.00    +0.081 C 
ATOM      9  C   UNL     1       4.139   2.309   0.296  1.00  0.00    +0.021 C 
ENDBRANCH   5   8
ENDBRANCH   4   5
ENDBRANCH   3   4
ENDBRANCH   1   3
BRANCH   2  10
ATOM     10  N   UNL     1       0.488  -0.841   0.717  1.00  0.00    -0.260 N 
ATOM     11  H   UNL     1       0.369   0.129   0.992  1.00  0.00    +0.192 HD
BRANCH  10  12
ATOM     12  C   UNL     1      -0.673  -1.631   0.716  1.00  0.00    +0.059 A 
ATOM     13  C   UNL     1      -0.637  -3.025   0.748  1.00  0.00    +0.030 A 
ATOM     14  C   UNL     1      -1.921  -1.020   0.553  1.00  0.00    +0.040 A 
ATOM     15  C   UNL     1      -1.817  -3.774   0.670  1.00  0.00    +0.031 A 
ATOM     16  C   UNL     1      -3.123  -1.778   0.479  1.00  0.00    +0.029 A 
ATOM     17  C   UNL     1      -3.060  -3.175   0.537  1.00  0.00    +0.074 A 
ATOM     18  C   UNL     1      -4.419  -1.254   0.333  1.00  0.00    +0.082 A 
ATOM     19  N   UNL     1      -4.143  -3.956   0.456  1.00  0.00    -0.236 NA
ATOM     20  N   UNL     1      -5.523  -2.026   0.232  1.00  0.00    -0.236 NA
ATOM     21  C   UNL     1      -5.324  -3.345   0.304  1.00  0.00    +0.223 A 
BRANCH  18  22
ATOM     22  C   UNL     1      -4.712   0.187   0.271  1.00  0.00    +0.008 A 
ATOM     23  C   UNL     1      -4.564   1.007   1.402  1.00  0.00    +0.015 A 
ATOM     24  C   UNL     1      -5.178   0.766  -0.920  1.00  0.00    +0.100 A 
ATOM     25  C   UNL     1      -4.856   2.373   1.343  1.00  0.00    +0.054 A 
ATOM     26  C   UNL     1      -5.474   2.139  -0.978  1.00  0.00    +0.311 A 
ATOM     27  C   UNL     1      -5.311   2.943   0.156  1.00  0.00    +0.194 A 
BRANCH  26  28
ATOM     28  N   UNL     1      -5.947   2.705  -2.243  1.00  0.00    +0.066 N 
ATOM     29  O   UNL     1      -6.312   3.893  -2.235  1.00  0.00    -0.258 OA
ATOM     30  O   UNL     1      -5.947   1.978  -3.245  1.00  0.00    -0.258 OA
ENDBRANCH  26  28
BRANCH  27  31
ATOM     31  O   UNL     1      -5.569   4.286   0.219  1.00  0.00    -0.502 OA
ATOM     32  H   UNL     1      -5.943   4.596  -0.634  1.00  0.00    +0.293 HD
ENDBRANCH  27  31
ENDBRANCH  18  22
ENDBRANCH  10  12
ENDBRANCH   2  10
TORSDOF 10
