REMARK SMILES Cc1cc(-c2ccc(O)c([N+](=O)[O-])c2)[nH]c1-c1ccccn1
REMARK SMILES IDX 5 1 6 2 7 3 8 4 10 5 14 6 4 7 2 8 3 9 16 10 15 11 1 12 17 14
REMARK SMILES IDX 18 15 22 16 19 17 21 18 20 19 11 20 12 21 13 22 9 23
REMARK H PARENT 15 13 9 24
ROOT
ATOM      1  C   UNL     1       1.924   0.369  -0.127  1.00  0.00    +0.005 A 
ATOM      2  C   UNL     1       2.039   1.684  -0.599  1.00  0.00    +0.014 A 
ATOM      3  C   UNL     1       3.256   2.167  -1.092  1.00  0.00    +0.054 A 
ATOM      4  C   UNL     1       4.379   1.344  -1.119  1.00  0.00    +0.194 A 
ATOM      5  C   UNL     1       4.280   0.030  -0.646  1.00  0.00    +0.311 A 
ATOM      6  C   UNL     1       3.057  -0.456  -0.151  1.00  0.00    +0.100 A 
ENDROOT
BRANCH   1   7
ATOM      7  C   UNL     1       0.652  -0.141   0.390  1.00  0.00    +0.046 A 
ATOM      8  C   UNL     1      -1.032  -1.234   1.488  1.00  0.00    -0.023 A 
ATOM      9  C   UNL     1       0.383  -1.093   1.354  1.00  0.00    +0.032 A 
ATOM     10  C   UNL     1      -1.615  -0.359   0.576  1.00  0.00    +0.068 A 
ATOM     11  N   UNL     1      -0.572   0.280  -0.066  1.00  0.00    -0.353 N 
ATOM     12  C   UNL     1      -1.693  -2.161   2.445  1.00  0.00    +0.047 C 
ATOM     13  H   UNL     1      -0.737   0.963  -0.794  1.00  0.00    +0.167 HD
BRANCH  10  14
ATOM     14  C   UNL     1      -2.990  -0.016   0.200  1.00  0.00    +0.087 A 
ATOM     15  C   UNL     1      -4.121  -0.629   0.721  1.00  0.00    +0.030 A 
ATOM     16  N   UNL     1      -3.059   0.974  -0.730  1.00  0.00    -0.255 NA
ATOM     17  C   UNL     1      -5.375  -0.212   0.278  1.00  0.00    +0.004 A 
ATOM     18  C   UNL     1      -4.289   1.357  -1.139  1.00  0.00    +0.112 A 
ATOM     19  C   UNL     1      -5.465   0.800  -0.669  1.00  0.00    +0.020 A 
ENDBRANCH  10  14
ENDBRANCH   1   7
BRANCH   5  20
ATOM     20  N   UNL     1       5.440  -0.864  -0.655  1.00  0.00    +0.066 N 
ATOM     21  O   UNL     1       6.501  -0.419  -1.124  1.00  0.00    -0.258 OA
ATOM     22  O   UNL     1       5.304  -2.006  -0.196  1.00  0.00    -0.258 OA
ENDBRANCH   5  20
BRANCH   4  23
ATOM     23  O   UNL     1       5.512   1.923  -1.623  1.00  0.00    -0.502 OA
ATOM     24  H   UNL     1       6.249   1.276  -1.615  1.00  0.00    +0.293 HD
ENDBRANCH   4  23
TORSDOF 4
