REMARK SMILES CN1C(=O)C(=C(N)C(C#N)=C(C#N)C#N)c2c(-c3ccccn3)ncnc21
REMARK SMILES IDX 1 1 2 2 3 3 4 4 5 5 6 6 16 7 17 8 24 9 25 10 26 11 27 12
REMARK SMILES IDX 7 13 8 16 9 17 11 18 10 19 12 20 14 21 13 22 15 23 18 24
REMARK SMILES IDX 19 25 23 26 20 27 22 28 21 29
REMARK H PARENT 7 14 7 15
ROOT
ATOM      1  C   UNL     1      -0.054   4.306  -0.623  1.00  0.00    +0.155 C 
ATOM      2  N   UNL     1      -0.007   2.889  -0.376  1.00  0.00    -0.295 N 
ATOM      3  C   UNL     1       0.941   2.022  -0.861  1.00  0.00    +0.262 C 
ATOM      4  O   UNL     1       1.909   2.281  -1.554  1.00  0.00    -0.269 OA
ATOM      5  C   UNL     1       0.551   0.657  -0.321  1.00  0.00    +0.078 C 
ATOM      6  C   UNL     1       1.391  -0.400  -0.442  1.00  0.00    +0.065 C 
ATOM      7  C   UNL     1      -0.750   0.846   0.361  1.00  0.00    +0.060 A 
ATOM      8  C   UNL     1      -1.792   0.096   0.862  1.00  0.00    +0.102 A 
ATOM      9  N   UNL     1      -2.919   0.691   1.358  1.00  0.00    -0.234 NA
ATOM     10  C   UNL     1      -2.995   2.029   1.336  1.00  0.00    +0.225 A 
ATOM     11  N   UNL     1      -2.084   2.844   0.812  1.00  0.00    -0.218 NA
ATOM     12  C   UNL     1      -1.006   2.215   0.329  1.00  0.00    +0.147 A 
ENDROOT
BRANCH   6  13
ATOM     13  N   UNL     1       1.277  -1.605   0.220  1.00  0.00    -0.397 N 
ATOM     14  H   UNL     1       0.478  -1.677   0.861  1.00  0.00    +0.156 HD
ATOM     15  H   UNL     1       1.292  -2.423  -0.388  1.00  0.00    +0.156 HD
ENDBRANCH   6  13
BRANCH   6  16
ATOM     16  C   UNL     1       2.628  -0.324  -1.246  1.00  0.00    +0.104 C 
ATOM     17  C   UNL     1       2.499  -0.743  -2.609  1.00  0.00    +0.104 C 
ATOM     18  C   UNL     1       3.814   0.088  -0.743  1.00  0.00    +0.149 C 
ATOM     19  N   UNL     1       2.373  -1.118  -3.699  1.00  0.00    -0.192 NA
ATOM     20  C   UNL     1       4.990   0.129  -1.544  1.00  0.00    +0.112 C 
ATOM     21  C   UNL     1       3.932   0.506   0.613  1.00  0.00    +0.112 C 
ATOM     22  N   UNL     1       5.952   0.141  -2.192  1.00  0.00    -0.192 NA
ATOM     23  N   UNL     1       4.020   0.857   1.716  1.00  0.00    -0.192 NA
ENDBRANCH   6  16
BRANCH   8  24
ATOM     24  C   UNL     1      -1.895  -1.369   0.851  1.00  0.00    +0.089 A 
ATOM     25  C   UNL     1      -2.913  -2.015   0.147  1.00  0.00    +0.031 A 
ATOM     26  N   UNL     1      -1.012  -2.054   1.624  1.00  0.00    -0.255 NA
ATOM     27  C   UNL     1      -3.035  -3.400   0.239  1.00  0.00    +0.004 A 
ATOM     28  C   UNL     1      -1.179  -3.397   1.724  1.00  0.00    +0.112 A 
ATOM     29  C   UNL     1      -2.157  -4.106   1.049  1.00  0.00    +0.020 A 
ENDBRANCH   8  24
TORSDOF 3
