REMARK SMILES O=[N+]([O-])c1cc(-c2ccc(-c3ccccc3)[nH]2)ccc1O
REMARK SMILES IDX 4 1 5 2 6 3 18 4 19 5 20 6 2 7 1 8 3 9 21 10 7 12 8 13 17 14
REMARK SMILES IDX 9 15 10 16 11 18 12 19 16 20 13 21 15 22 14 23
REMARK H PARENT 21 11 17 17
ROOT
ATOM      1  C   UNL     1       4.230  -0.168   0.473  1.00  0.00    +0.311 A 
ATOM      2  C   UNL     1       2.963   0.407   0.673  1.00  0.00    +0.100 A 
ATOM      3  C   UNL     1       1.885   0.051  -0.149  1.00  0.00    +0.005 A 
ATOM      4  C   UNL     1       2.098  -0.881  -1.175  1.00  0.00    +0.014 A 
ATOM      5  C   UNL     1       3.359  -1.452  -1.373  1.00  0.00    +0.054 A 
ATOM      6  C   UNL     1       4.428  -1.102  -0.552  1.00  0.00    +0.194 A 
ENDROOT
BRANCH   1   7
ATOM      7  N   UNL     1       5.330   0.229   1.354  1.00  0.00    +0.066 N 
ATOM      8  O   UNL     1       6.434  -0.309   1.167  1.00  0.00    -0.258 OA
ATOM      9  O   UNL     1       5.104   1.073   2.232  1.00  0.00    -0.258 OA
ENDBRANCH   1   7
BRANCH   6  10
ATOM     10  O   UNL     1       5.611  -1.726  -0.839  1.00  0.00    -0.502 OA
ATOM     11  H   UNL     1       6.307  -1.427  -0.216  1.00  0.00    +0.293 HD
ENDBRANCH   6  10
BRANCH   3  12
ATOM     12  C   UNL     1       0.567   0.652   0.064  1.00  0.00    +0.046 A 
ATOM     13  C   UNL     1       0.214   1.911   0.516  1.00  0.00    +0.029 A 
ATOM     14  N   UNL     1      -0.616  -0.025  -0.148  1.00  0.00    -0.355 N 
ATOM     15  C   UNL     1      -1.200   1.984   0.561  1.00  0.00    +0.029 A 
ATOM     16  C   UNL     1      -1.706   0.769   0.135  1.00  0.00    +0.046 A 
ATOM     17  H   UNL     1      -0.679  -0.992  -0.431  1.00  0.00    +0.167 HD
BRANCH  16  18
ATOM     18  C   UNL     1      -3.087   0.303   0.006  1.00  0.00    -0.002 A 
ATOM     19  C   UNL     1      -4.062   0.722   0.921  1.00  0.00    +0.010 A 
ATOM     20  C   UNL     1      -3.466  -0.563  -1.029  1.00  0.00    +0.010 A 
ATOM     21  C   UNL     1      -5.383   0.279   0.811  1.00  0.00    +0.001 A 
ATOM     22  C   UNL     1      -4.788  -1.005  -1.141  1.00  0.00    +0.001 A 
ATOM     23  C   UNL     1      -5.745  -0.585  -0.220  1.00  0.00    +0.000 A 
ENDBRANCH  16  18
ENDBRANCH   3  12
TORSDOF 4
