REMARK SMILES Cc1cccc(C=C2C(=O)N(C)c3ncnc(Nc4cccc(C)c4)c32)c1
REMARK SMILES IDX 7 1 8 2 9 3 10 4 11 5 12 6 13 7 14 8 15 9 16 10 17 11 26 12
REMARK SMILES IDX 6 13 2 14 3 15 27 16 4 17 5 18 1 19 18 20 19 22 20 23 25 24
REMARK SMILES IDX 21 25 23 26 22 27 24 28
REMARK H PARENT 18 21
ROOT
ATOM      1  C   UNL     1       1.246  -0.258   0.223  1.00  0.00    +0.023 C 
ATOM      2  C   UNL     1       1.155   1.081   0.175  1.00  0.00    +0.055 C 
ATOM      3  C   UNL     1       2.298   2.069   0.188  1.00  0.00    +0.260 C 
ATOM      4  O   UNL     1       3.490   1.832   0.149  1.00  0.00    -0.269 OA
ATOM      5  N   UNL     1       1.688   3.311   0.256  1.00  0.00    -0.295 N 
ATOM      6  C   UNL     1       2.368   4.576   0.305  1.00  0.00    +0.155 C 
ATOM      7  C   UNL     1       0.294   3.203   0.262  1.00  0.00    +0.148 A 
ATOM      8  N   UNL     1      -0.536   4.247   0.315  1.00  0.00    -0.218 NA
ATOM      9  C   UNL     1      -1.826   3.901   0.292  1.00  0.00    +0.226 A 
ATOM     10  N   UNL     1      -2.313   2.648   0.203  1.00  0.00    -0.218 NA
ATOM     11  C   UNL     1      -1.437   1.622   0.133  1.00  0.00    +0.144 A 
ATOM     12  C   UNL     1      -0.083   1.873   0.188  1.00  0.00    +0.073 A 
ENDROOT
BRANCH   1  13
ATOM     13  C   UNL     1       2.472  -1.065   0.233  1.00  0.00    -0.025 A 
ATOM     14  C   UNL     1       4.522  -1.849  -0.824  1.00  0.00    -0.051 A 
ATOM     15  C   UNL     1       4.732  -2.720   0.251  1.00  0.00    +0.003 A 
ATOM     16  C   UNL     1       3.378  -1.039  -0.834  1.00  0.00    +0.011 A 
ATOM     17  C   UNL     1       3.827  -2.762   1.311  1.00  0.00    +0.001 A 
ATOM     18  C   UNL     1       2.700  -1.939   1.302  1.00  0.00    +0.008 A 
ATOM     19  C   UNL     1       5.482  -1.818  -1.977  1.00  0.00    +0.044 C 
ENDBRANCH   1  13
BRANCH  11  20
ATOM     20  N   UNL     1      -1.906   0.298  -0.023  1.00  0.00    -0.340 N 
ATOM     21  H   UNL     1      -1.468  -0.116  -0.840  1.00  0.00    +0.168 HD
BRANCH  20  22
ATOM     22  C   UNL     1      -3.216  -0.203   0.158  1.00  0.00    +0.040 A 
ATOM     23  C   UNL     1      -4.130   0.369   1.048  1.00  0.00    +0.026 A 
ATOM     24  C   UNL     1      -3.577  -1.403  -0.477  1.00  0.00    +0.029 A 
ATOM     25  C   UNL     1      -5.388  -0.204   1.255  1.00  0.00    +0.002 A 
ATOM     26  C   UNL     1      -4.843  -1.982  -0.290  1.00  0.00    -0.049 A 
ATOM     27  C   UNL     1      -5.744  -1.373   0.588  1.00  0.00    +0.003 A 
ATOM     28  C   UNL     1      -5.197  -3.270  -0.971  1.00  0.00    +0.044 C 
ENDBRANCH  20  22
ENDBRANCH  11  20
TORSDOF 3
