REMARK SMILES C[N+](C)(C)C[C@@H](O)CO[C@H]1CCCN1c1nc2ccccc2o1
REMARK SMILES IDX 6 1 5 2 2 3 1 4 3 5 4 6 7 7 8 9 9 10 10 11 11 12 14 13 12 14
REMARK SMILES IDX 13 15 15 16 16 17 23 18 17 19 22 20 18 21 21 22 19 23 20 24
REMARK H PARENT 7 8
ROOT
ATOM      1  C   UNL     1      -1.638  -1.001  -0.935  1.00  0.00    +0.195 C 
ENDROOT
BRANCH   1   2
ATOM      2  C   UNL     1      -2.066   0.146  -1.874  1.00  0.00    +0.297 C 
BRANCH   2   3
ATOM      3  N   UNL     1      -3.478   0.743  -1.590  1.00  0.00    -0.329 N 
ATOM      4  C   UNL     1      -3.768   1.786  -2.670  1.00  0.00    +0.334 C 
ATOM      5  C   UNL     1      -3.522   1.426  -0.229  1.00  0.00    +0.334 C 
ATOM      6  C   UNL     1      -4.564  -0.331  -1.659  1.00  0.00    +0.334 C 
ENDBRANCH   2   3
ENDBRANCH   1   2
BRANCH   1   7
ATOM      7  O   UNL     1      -2.487  -2.145  -1.112  1.00  0.00    -0.385 OA
ATOM      8  H   UNL     1      -1.988  -2.913  -0.759  1.00  0.00    +0.211 HD
ENDBRANCH   1   7
BRANCH   1   9
ATOM      9  C   UNL     1      -0.201  -1.432  -1.263  1.00  0.00    +0.200 C 
BRANCH   9  10
ATOM     10  O   UNL     1       0.197  -2.481  -0.375  1.00  0.00    -0.355 OA
BRANCH  10  11
ATOM     11  C   UNL     1       0.783  -2.012   0.845  1.00  0.00    +0.218 C 
ATOM     12  C   UNL     1       1.045  -3.237   1.728  1.00  0.00    +0.057 C 
ATOM     13  N   UNL     1       2.105  -1.481   0.588  1.00  0.00    -0.300 N 
ATOM     14  C   UNL     1       2.386  -3.740   1.207  1.00  0.00    +0.026 C 
ATOM     15  C   UNL     1       3.147  -2.447   0.931  1.00  0.00    +0.124 C 
BRANCH  13  16
ATOM     16  C   UNL     1       2.333  -0.159   0.731  1.00  0.00    +0.300 A 
ATOM     17  N   UNL     1       1.449   0.823   0.819  1.00  0.00    -0.193 NA
ATOM     18  O   UNL     1       3.640   0.248   0.743  1.00  0.00    -0.423 OA
ATOM     19  C   UNL     1       2.231   1.950   0.919  1.00  0.00    +0.111 A 
ATOM     20  C   UNL     1       3.570   1.599   0.870  1.00  0.00    +0.156 A 
ATOM     21  C   UNL     1       1.892   3.306   1.049  1.00  0.00    +0.032 A 
ATOM     22  C   UNL     1       4.633   2.493   0.934  1.00  0.00    +0.049 A 
ATOM     23  C   UNL     1       2.938   4.245   1.108  1.00  0.00    +0.003 A 
ATOM     24  C   UNL     1       4.282   3.845   1.050  1.00  0.00    +0.004 A 
ENDBRANCH  13  16
ENDBRANCH  10  11
ENDBRANCH   9  10
ENDBRANCH   1   9
TORSDOF 7
