MODEL 1
REMARK VINA RESULT:    -7.964      0.000      0.000
REMARK INTER + INTRA:         -10.323
REMARK INTER:                  -9.826
REMARK INTRA:                  -0.497
REMARK UNBOUND:                -0.497
REMARK SMILES CCN(c1ccccc1)c1cc(C)c(-c2ccccc2)[nH]1
REMARK SMILES IDX 3 1 2 2 1 3 4 4 5 5 9 6 6 7 8 8 7 9 10 10 11 11 21 12 12 13
REMARK SMILES IDX 14 14 13 16 15 17 16 18 20 19 17 20 19 21 18 22
REMARK H PARENT 21 15
ROOT
ATOM      1  N   UNL     1      25.852   0.866  52.696  1.00  0.00    -0.328 N 
ENDROOT
BRANCH   1   2
ATOM      2  C   UNL     1      25.943   2.287  52.310  1.00  0.00    +0.121 C 
ATOM      3  C   UNL     1      26.482   2.458  50.895  1.00  0.00    +0.028 C 
ENDBRANCH   1   2
BRANCH   1   4
ATOM      4  C   UNL     1      27.088   0.290  53.092  1.00  0.00    +0.042 A 
ATOM      5  C   UNL     1      28.013   1.027  53.846  1.00  0.00    +0.026 A 
ATOM      6  C   UNL     1      27.425  -1.027  52.739  1.00  0.00    +0.026 A 
ATOM      7  C   UNL     1      29.235   0.468  54.234  1.00  0.00    +0.002 A 
ATOM      8  C   UNL     1      28.645  -1.589  53.127  1.00  0.00    +0.002 A 
ATOM      9  C   UNL     1      29.550  -0.840  53.874  1.00  0.00    +0.000 A 
ENDBRANCH   1   4
BRANCH   1  10
ATOM     10  C   UNL     1      24.631   0.326  52.990  1.00  0.00    +0.111 A 
ATOM     11  C   UNL     1      24.188  -0.510  53.994  1.00  0.00    +0.050 A 
ATOM     12  N   UNL     1      23.521   0.656  52.249  1.00  0.00    -0.341 N 
ATOM     13  C   UNL     1      22.788  -0.725  53.825  1.00  0.00    -0.023 A 
ATOM     14  C   UNL     1      22.397   0.014  52.716  1.00  0.00    +0.050 A 
ATOM     15  H   UNL     1      23.542   1.278  51.454  1.00  0.00    +0.168 HD
ATOM     16  C   UNL     1      21.930  -1.568  54.699  1.00  0.00    +0.047 C 
BRANCH  14  17
ATOM     17  C   UNL     1      21.096   0.172  52.067  1.00  0.00    -0.002 A 
ATOM     18  C   UNL     1      19.921  -0.200  52.730  1.00  0.00    +0.010 A 
ATOM     19  C   UNL     1      21.006   0.688  50.768  1.00  0.00    +0.010 A 
ATOM     20  C   UNL     1      18.678  -0.057  52.108  1.00  0.00    +0.001 A 
ATOM     21  C   UNL     1      19.764   0.832  50.146  1.00  0.00    +0.001 A 
ATOM     22  C   UNL     1      18.601   0.458  50.816  1.00  0.00    +0.000 A 
ENDBRANCH  14  17
ENDBRANCH   1  10
TORSDOF 4
ENDMDL
MODEL 2
REMARK VINA RESULT:    -7.919      1.196      7.426
REMARK INTER + INTRA:         -10.267
REMARK INTER:                  -9.441
REMARK INTRA:                  -0.826
REMARK UNBOUND:                -0.497
REMARK SMILES CCN(c1ccccc1)c1cc(C)c(-c2ccccc2)[nH]1
REMARK SMILES IDX 3 1 2 2 1 3 4 4 5 5 9 6 6 7 8 8 7 9 10 10 11 11 21 12 12 13
REMARK SMILES IDX 14 14 13 16 15 17 16 18 20 19 17 20 19 21 18 22
REMARK H PARENT 21 15
ROOT
ATOM      1  N   UNL     1      22.446   0.277  53.034  1.00  0.00    -0.328 N 
ENDROOT
BRANCH   1   2
ATOM      2  C   UNL     1      22.092  -0.242  54.369  1.00  0.00    +0.121 C 
ATOM      3  C   UNL     1      21.330  -1.559  54.282  1.00  0.00    +0.028 C 
ENDBRANCH   1   2
BRANCH   1   4
ATOM      4  C   UNL     1      21.347   0.794  52.300  1.00  0.00    +0.042 A 
ATOM      5  C   UNL     1      21.073   0.337  51.001  1.00  0.00    +0.026 A 
ATOM      6  C   UNL     1      20.503   1.776  52.843  1.00  0.00    +0.026 A 
ATOM      7  C   UNL     1      19.995   0.847  50.270  1.00  0.00    +0.002 A 
ATOM      8  C   UNL     1      19.424   2.285  52.116  1.00  0.00    +0.002 A 
ATOM      9  C   UNL     1      19.171   1.820  50.828  1.00  0.00    +0.000 A 
ENDBRANCH   1   4
BRANCH   1  10
ATOM     10  C   UNL     1      23.754   0.557  52.747  1.00  0.00    +0.111 A 
ATOM     11  C   UNL     1      24.380   1.648  52.183  1.00  0.00    +0.050 A 
ATOM     12  N   UNL     1      24.752  -0.318  53.101  1.00  0.00    -0.341 N 
ATOM     13  C   UNL     1      25.786   1.403  52.154  1.00  0.00    -0.023 A 
ATOM     14  C   UNL     1      25.990   0.156  52.731  1.00  0.00    +0.050 A 
ATOM     15  H   UNL     1      24.587  -1.203  53.559  1.00  0.00    +0.168 HD
ATOM     16  C   UNL     1      26.816   2.334  51.622  1.00  0.00    +0.047 C 
BRANCH  14  17
ATOM     17  C   UNL     1      27.210  -0.614  52.964  1.00  0.00    -0.002 A 
ATOM     18  C   UNL     1      27.259  -1.979  52.659  1.00  0.00    +0.010 A 
ATOM     19  C   UNL     1      28.347  -0.000  53.506  1.00  0.00    +0.010 A 
ATOM     20  C   UNL     1      28.423  -2.718  52.889  1.00  0.00    +0.001 A 
ATOM     21  C   UNL     1      29.511  -0.738  53.736  1.00  0.00    +0.001 A 
ATOM     22  C   UNL     1      29.548  -2.097  53.427  1.00  0.00    +0.000 A 
ENDBRANCH  14  17
ENDBRANCH   1  10
TORSDOF 4
ENDMDL
MODEL 3
REMARK VINA RESULT:    -7.894      1.963      6.731
REMARK INTER + INTRA:         -10.237
REMARK INTER:                  -9.307
REMARK INTRA:                  -0.930
REMARK UNBOUND:                -0.497
REMARK SMILES CCN(c1ccccc1)c1cc(C)c(-c2ccccc2)[nH]1
REMARK SMILES IDX 3 1 2 2 1 3 4 4 5 5 9 6 6 7 8 8 7 9 10 10 11 11 21 12 12 13
REMARK SMILES IDX 14 14 13 16 15 17 16 18 20 19 17 20 19 21 18 22
REMARK H PARENT 21 15
ROOT
ATOM      1  N   UNL     1      23.606   2.440  51.616  1.00  0.00    -0.328 N 
ENDROOT
BRANCH   1   2
ATOM      2  C   UNL     1      24.105   3.819  51.776  1.00  0.00    +0.121 C 
ATOM      3  C   UNL     1      23.229   4.633  52.722  1.00  0.00    +0.028 C 
ENDBRANCH   1   2
BRANCH   1   4
ATOM      4  C   UNL     1      22.950   2.199  50.380  1.00  0.00    +0.042 A 
ATOM      5  C   UNL     1      21.911   1.260  50.291  1.00  0.00    +0.026 A 
ATOM      6  C   UNL     1      23.320   2.885  49.212  1.00  0.00    +0.026 A 
ATOM      7  C   UNL     1      21.265   1.014  49.075  1.00  0.00    +0.002 A 
ATOM      8  C   UNL     1      22.675   2.642  47.996  1.00  0.00    +0.002 A 
ATOM      9  C   UNL     1      21.647   1.705  47.929  1.00  0.00    +0.000 A 
ENDBRANCH   1   4
BRANCH   1  10
ATOM     10  C   UNL     1      24.089   1.451  52.428  1.00  0.00    +0.111 A 
ATOM     11  C   UNL     1      23.517   0.693  53.429  1.00  0.00    +0.050 A 
ATOM     12  N   UNL     1      25.371   0.982  52.276  1.00  0.00    -0.341 N 
ATOM     13  C   UNL     1      24.495  -0.223  53.922  1.00  0.00    -0.023 A 
ATOM     14  C   UNL     1      25.652  -0.014  53.183  1.00  0.00    +0.050 A 
ATOM     15  H   UNL     1      26.022   1.340  51.592  1.00  0.00    +0.168 HD
ATOM     16  C   UNL     1      24.279  -1.217  55.006  1.00  0.00    +0.047 C 
BRANCH  14  17
ATOM     17  C   UNL     1      26.968  -0.648  53.247  1.00  0.00    -0.002 A 
ATOM     18  C   UNL     1      28.066   0.044  53.771  1.00  0.00    +0.010 A 
ATOM     19  C   UNL     1      27.153  -1.954  52.776  1.00  0.00    +0.010 A 
ATOM     20  C   UNL     1      29.326  -0.558  53.825  1.00  0.00    +0.001 A 
ATOM     21  C   UNL     1      28.412  -2.557  52.830  1.00  0.00    +0.001 A 
ATOM     22  C   UNL     1      29.498  -1.858  53.354  1.00  0.00    +0.000 A 
ENDBRANCH  14  17
ENDBRANCH   1  10
TORSDOF 4
ENDMDL
MODEL 4
REMARK VINA RESULT:    -7.674      2.671      5.826
REMARK INTER + INTRA:          -9.965
REMARK INTER:                  -9.151
REMARK INTRA:                  -0.813
REMARK UNBOUND:                -0.497
REMARK SMILES CCN(c1ccccc1)c1cc(C)c(-c2ccccc2)[nH]1
REMARK SMILES IDX 3 1 2 2 1 3 4 4 5 5 9 6 6 7 8 8 7 9 10 10 11 11 21 12 12 13
REMARK SMILES IDX 14 14 13 16 15 17 16 18 20 19 17 20 19 21 18 22
REMARK H PARENT 21 15
ROOT
ATOM      1  N   UNL     1      24.326   1.175  52.761  1.00  0.00    -0.328 N 
ENDROOT
BRANCH   1   2
ATOM      2  C   UNL     1      23.130   0.639  53.439  1.00  0.00    +0.121 C 
ATOM      3  C   UNL     1      22.949  -0.852  53.176  1.00  0.00    +0.028 C 
ENDBRANCH   1   2
BRANCH   1   4
ATOM      4  C   UNL     1      25.547   0.589  53.186  1.00  0.00    +0.042 A 
ATOM      5  C   UNL     1      26.244  -0.300  52.353  1.00  0.00    +0.026 A 
ATOM      6  C   UNL     1      26.094   0.873  54.448  1.00  0.00    +0.026 A 
ATOM      7  C   UNL     1      27.444  -0.886  52.767  1.00  0.00    +0.002 A 
ATOM      8  C   UNL     1      27.294   0.291  54.864  1.00  0.00    +0.002 A 
ATOM      9  C   UNL     1      27.969  -0.590  54.022  1.00  0.00    +0.000 A 
ENDBRANCH   1   4
BRANCH   1  10
ATOM     10  C   UNL     1      24.181   1.875  51.595  1.00  0.00    +0.111 A 
ATOM     11  C   UNL     1      23.201   1.893  50.625  1.00  0.00    +0.050 A 
ATOM     12  N   UNL     1      25.098   2.832  51.233  1.00  0.00    -0.341 N 
ATOM     13  C   UNL     1      23.561   2.852  49.631  1.00  0.00    -0.023 A 
ATOM     14  C   UNL     1      24.762   3.422  50.036  1.00  0.00    +0.050 A 
ATOM     15  H   UNL     1      25.920   3.055  51.775  1.00  0.00    +0.168 HD
ATOM     16  C   UNL     1      22.770   3.176  48.415  1.00  0.00    +0.047 C 
BRANCH  14  17
ATOM     17  C   UNL     1      25.603   4.445  49.419  1.00  0.00    -0.002 A 
ATOM     18  C   UNL     1      26.949   4.184  49.137  1.00  0.00    +0.010 A 
ATOM     19  C   UNL     1      25.079   5.706  49.108  1.00  0.00    +0.010 A 
ATOM     20  C   UNL     1      27.757   5.165  48.555  1.00  0.00    +0.001 A 
ATOM     21  C   UNL     1      25.885   6.687  48.526  1.00  0.00    +0.001 A 
ATOM     22  C   UNL     1      27.224   6.416  48.250  1.00  0.00    +0.000 A 
ENDBRANCH  14  17
ENDBRANCH   1  10
TORSDOF 4
ENDMDL
MODEL 5
REMARK VINA RESULT:    -7.654      2.674      6.666
REMARK INTER + INTRA:          -9.941
REMARK INTER:                  -9.493
REMARK INTRA:                  -0.448
REMARK UNBOUND:                -0.497
REMARK SMILES CCN(c1ccccc1)c1cc(C)c(-c2ccccc2)[nH]1
REMARK SMILES IDX 3 1 2 2 1 3 4 4 5 5 9 6 6 7 8 8 7 9 10 10 11 11 21 12 12 13
REMARK SMILES IDX 14 14 13 16 15 17 16 18 20 19 17 20 19 21 18 22
REMARK H PARENT 21 15
ROOT
ATOM      1  N   UNL     1      24.264   0.926  52.410  1.00  0.00    -0.328 N 
ENDROOT
BRANCH   1   2
ATOM      2  C   UNL     1      25.567   0.810  53.094  1.00  0.00    +0.121 C 
ATOM      3  C   UNL     1      26.482  -0.195  52.405  1.00  0.00    +0.028 C 
ENDBRANCH   1   2
BRANCH   1   4
ATOM      4  C   UNL     1      23.162   0.461  53.175  1.00  0.00    +0.042 A 
ATOM      5  C   UNL     1      23.268  -0.703  53.951  1.00  0.00    +0.026 A 
ATOM      6  C   UNL     1      21.936   1.146  53.178  1.00  0.00    +0.026 A 
ATOM      7  C   UNL     1      22.184  -1.169  54.702  1.00  0.00    +0.002 A 
ATOM      8  C   UNL     1      20.852   0.684  53.930  1.00  0.00    +0.002 A 
ATOM      9  C   UNL     1      20.977  -0.476  54.691  1.00  0.00    +0.000 A 
ENDBRANCH   1   4
BRANCH   1  10
ATOM     10  C   UNL     1      24.146   1.748  51.324  1.00  0.00    +0.111 A 
ATOM     11  C   UNL     1      23.159   1.917  50.375  1.00  0.00    +0.050 A 
ATOM     12  N   UNL     1      25.110   2.688  51.047  1.00  0.00    -0.341 N 
ATOM     13  C   UNL     1      23.561   2.953  49.479  1.00  0.00    -0.023 A 
ATOM     14  C   UNL     1      24.794   3.414  49.921  1.00  0.00    +0.050 A 
ATOM     15  H   UNL     1      25.947   2.810  51.597  1.00  0.00    +0.168 HD
ATOM     16  C   UNL     1      22.777   3.440  48.313  1.00  0.00    +0.047 C 
BRANCH  14  17
ATOM     17  C   UNL     1      25.684   4.449  49.399  1.00  0.00    -0.002 A 
ATOM     18  C   UNL     1      25.230   5.763  49.238  1.00  0.00    +0.010 A 
ATOM     19  C   UNL     1      27.004   4.140  49.043  1.00  0.00    +0.010 A 
ATOM     20  C   UNL     1      26.078   6.751  48.731  1.00  0.00    +0.001 A 
ATOM     21  C   UNL     1      27.852   5.128  48.537  1.00  0.00    +0.001 A 
ATOM     22  C   UNL     1      27.388   6.433  48.380  1.00  0.00    +0.000 A 
ENDBRANCH  14  17
ENDBRANCH   1  10
TORSDOF 4
ENDMDL
MODEL 6
REMARK VINA RESULT:    -7.646      2.359      6.686
REMARK INTER + INTRA:          -9.931
REMARK INTER:                  -9.115
REMARK INTRA:                  -0.816
REMARK UNBOUND:                -0.497
REMARK SMILES CCN(c1ccccc1)c1cc(C)c(-c2ccccc2)[nH]1
REMARK SMILES IDX 3 1 2 2 1 3 4 4 5 5 9 6 6 7 8 8 7 9 10 10 11 11 21 12 12 13
REMARK SMILES IDX 14 14 13 16 15 17 16 18 20 19 17 20 19 21 18 22
REMARK H PARENT 21 15
ROOT
ATOM      1  N   UNL     1      23.970   2.594  50.556  1.00  0.00    -0.328 N 
ENDROOT
BRANCH   1   2
ATOM      2  C   UNL     1      22.608   2.452  50.006  1.00  0.00    +0.121 C 
ATOM      3  C   UNL     1      22.625   2.254  48.494  1.00  0.00    +0.028 C 
ENDBRANCH   1   2
BRANCH   1   4
ATOM      4  C   UNL     1      24.582   3.845  50.280  1.00  0.00    +0.042 A 
ATOM      5  C   UNL     1      25.669   3.933  49.398  1.00  0.00    +0.026 A 
ATOM      6  C   UNL     1      24.124   5.029  50.881  1.00  0.00    +0.026 A 
ATOM      7  C   UNL     1      26.280   5.161  49.126  1.00  0.00    +0.002 A 
ATOM      8  C   UNL     1      24.731   6.258  50.611  1.00  0.00    +0.002 A 
ATOM      9  C   UNL     1      25.810   6.323  49.733  1.00  0.00    +0.000 A 
ENDBRANCH   1   4
BRANCH   1  10
ATOM     10  C   UNL     1      24.391   1.739  51.537  1.00  0.00    +0.111 A 
ATOM     11  C   UNL     1      23.726   1.021  52.508  1.00  0.00    +0.050 A 
ATOM     12  N   UNL     1      25.717   1.392  51.644  1.00  0.00    -0.341 N 
ATOM     13  C   UNL     1      24.680   0.259  53.247  1.00  0.00    -0.023 A 
ATOM     14  C   UNL     1      25.924   0.518  52.686  1.00  0.00    +0.050 A 
ATOM     15  H   UNL     1      26.441   1.752  51.039  1.00  0.00    +0.168 HD
ATOM     16  C   UNL     1      24.370  -0.648  54.383  1.00  0.00    +0.047 C 
BRANCH  14  17
ATOM     17  C   UNL     1      27.260   0.032  53.028  1.00  0.00    -0.002 A 
ATOM     18  C   UNL     1      28.233   0.911  53.518  1.00  0.00    +0.010 A 
ATOM     19  C   UNL     1      27.590  -1.319  52.862  1.00  0.00    +0.010 A 
ATOM     20  C   UNL     1      29.512   0.448  53.837  1.00  0.00    +0.001 A 
ATOM     21  C   UNL     1      28.868  -1.783  53.181  1.00  0.00    +0.001 A 
ATOM     22  C   UNL     1      29.829  -0.898  53.669  1.00  0.00    +0.000 A 
ENDBRANCH  14  17
ENDBRANCH   1  10
TORSDOF 4
ENDMDL
MODEL 7
REMARK VINA RESULT:    -7.601      3.147      6.530
REMARK INTER + INTRA:          -9.875
REMARK INTER:                  -9.055
REMARK INTRA:                  -0.820
REMARK UNBOUND:                -0.497
REMARK SMILES CCN(c1ccccc1)c1cc(C)c(-c2ccccc2)[nH]1
REMARK SMILES IDX 3 1 2 2 1 3 4 4 5 5 9 6 6 7 8 8 7 9 10 10 11 11 21 12 12 13
REMARK SMILES IDX 14 14 13 16 15 17 16 18 20 19 17 20 19 21 18 22
REMARK H PARENT 21 15
ROOT
ATOM      1  N   UNL     1      21.489   1.787  52.226  1.00  0.00    -0.328 N 
ENDROOT
BRANCH   1   2
ATOM      2  C   UNL     1      20.096   2.206  52.477  1.00  0.00    +0.121 C 
ATOM      3  C   UNL     1      19.816   3.601  51.930  1.00  0.00    +0.028 C 
ENDBRANCH   1   2
BRANCH   1   4
ATOM      4  C   UNL     1      21.963   0.783  53.111  1.00  0.00    +0.042 A 
ATOM      5  C   UNL     1      21.140   0.278  54.129  1.00  0.00    +0.026 A 
ATOM      6  C   UNL     1      23.265   0.268  53.001  1.00  0.00    +0.026 A 
ATOM      7  C   UNL     1      21.602  -0.707  55.008  1.00  0.00    +0.002 A 
ATOM      8  C   UNL     1      23.729  -0.717  53.876  1.00  0.00    +0.002 A 
ATOM      9  C   UNL     1      22.896  -1.204  54.881  1.00  0.00    +0.000 A 
ENDBRANCH   1   4
BRANCH   1  10
ATOM     10  C   UNL     1      22.074   2.084  51.027  1.00  0.00    +0.111 A 
ATOM     11  C   UNL     1      21.790   1.726  49.726  1.00  0.00    +0.050 A 
ATOM     12  N   UNL     1      23.133   2.959  50.961  1.00  0.00    -0.341 N 
ATOM     13  C   UNL     1      22.728   2.364  48.861  1.00  0.00    -0.023 A 
ATOM     14  C   UNL     1      23.565   3.127  49.665  1.00  0.00    +0.050 A 
ATOM     15  H   UNL     1      23.544   3.404  51.769  1.00  0.00    +0.168 HD
ATOM     16  C   UNL     1      22.766   2.236  47.380  1.00  0.00    +0.047 C 
BRANCH  14  17
ATOM     17  C   UNL     1      24.706   3.980  49.340  1.00  0.00    -0.002 A 
ATOM     18  C   UNL     1      26.012   3.484  49.422  1.00  0.00    +0.010 A 
ATOM     19  C   UNL     1      24.511   5.311  48.949  1.00  0.00    +0.010 A 
ATOM     20  C   UNL     1      27.104   4.302  49.119  1.00  0.00    +0.001 A 
ATOM     21  C   UNL     1      25.602   6.130  48.645  1.00  0.00    +0.001 A 
ATOM     22  C   UNL     1      26.898   5.624  48.731  1.00  0.00    +0.000 A 
ENDBRANCH  14  17
ENDBRANCH   1  10
TORSDOF 4
ENDMDL
MODEL 8
REMARK VINA RESULT:    -7.439      2.071      3.496
REMARK INTER + INTRA:          -9.675
REMARK INTER:                  -8.813
REMARK INTRA:                  -0.863
REMARK UNBOUND:                -0.497
REMARK SMILES CCN(c1ccccc1)c1cc(C)c(-c2ccccc2)[nH]1
REMARK SMILES IDX 3 1 2 2 1 3 4 4 5 5 9 6 6 7 8 8 7 9 10 10 11 11 21 12 12 13
REMARK SMILES IDX 14 14 13 16 15 17 16 18 20 19 17 20 19 21 18 22
REMARK H PARENT 21 15
ROOT
ATOM      1  N   UNL     1      25.614   0.230  53.798  1.00  0.00    -0.328 N 
ENDROOT
BRANCH   1   2
ATOM      2  C   UNL     1      24.877  -0.969  54.242  1.00  0.00    +0.121 C 
ATOM      3  C   UNL     1      24.793  -1.053  55.762  1.00  0.00    +0.028 C 
ENDBRANCH   1   2
BRANCH   1   4
ATOM      4  C   UNL     1      27.022   0.063  53.750  1.00  0.00    +0.042 A 
ATOM      5  C   UNL     1      27.881   1.079  54.197  1.00  0.00    +0.026 A 
ATOM      6  C   UNL     1      27.601  -1.117  53.254  1.00  0.00    +0.026 A 
ATOM      7  C   UNL     1      29.270   0.923  54.147  1.00  0.00    +0.002 A 
ATOM      8  C   UNL     1      28.988  -1.277  53.206  1.00  0.00    +0.002 A 
ATOM      9  C   UNL     1      29.822  -0.255  53.652  1.00  0.00    +0.000 A 
ENDBRANCH   1   4
BRANCH   1  10
ATOM     10  C   UNL     1      24.942   1.230  53.150  1.00  0.00    +0.111 A 
ATOM     11  C   UNL     1      24.759   2.570  53.421  1.00  0.00    +0.050 A 
ATOM     12  N   UNL     1      24.337   0.997  51.937  1.00  0.00    -0.341 N 
ATOM     13  C   UNL     1      23.985   3.146  52.369  1.00  0.00    -0.023 A 
ATOM     14  C   UNL     1      23.728   2.133  51.455  1.00  0.00    +0.050 A 
ATOM     15  H   UNL     1      24.332   0.099  51.477  1.00  0.00    +0.168 HD
ATOM     16  C   UNL     1      23.566   4.570  52.284  1.00  0.00    +0.047 C 
BRANCH  14  17
ATOM     17  C   UNL     1      22.982   2.131  50.198  1.00  0.00    -0.002 A 
ATOM     18  C   UNL     1      23.403   2.918  49.120  1.00  0.00    +0.010 A 
ATOM     19  C   UNL     1      21.830   1.347  50.055  1.00  0.00    +0.010 A 
ATOM     20  C   UNL     1      22.685   2.922  47.920  1.00  0.00    +0.001 A 
ATOM     21  C   UNL     1      21.112   1.351  48.856  1.00  0.00    +0.001 A 
ATOM     22  C   UNL     1      21.541   2.139  47.790  1.00  0.00    +0.000 A 
ENDBRANCH  14  17
ENDBRANCH   1  10
TORSDOF 4
ENDMDL
MODEL 9
REMARK VINA RESULT:    -7.074      1.236      6.881
REMARK INTER + INTRA:          -9.224
REMARK INTER:                  -9.282
REMARK INTRA:                   0.058
REMARK UNBOUND:                -0.497
REMARK SMILES CCN(c1ccccc1)c1cc(C)c(-c2ccccc2)[nH]1
REMARK SMILES IDX 3 1 2 2 1 3 4 4 5 5 9 6 6 7 8 8 7 9 10 10 11 11 21 12 12 13
REMARK SMILES IDX 14 14 13 16 15 17 16 18 20 19 17 20 19 21 18 22
REMARK H PARENT 21 15
ROOT
ATOM      1  N   UNL     1      22.131   1.429  51.690  1.00  0.00    -0.328 N 
ENDROOT
BRANCH   1   2
ATOM      2  C   UNL     1      21.152   1.885  50.685  1.00  0.00    +0.121 C 
ATOM      3  C   UNL     1      21.177   1.015  49.433  1.00  0.00    +0.028 C 
ENDBRANCH   1   2
BRANCH   1   4
ATOM      4  C   UNL     1      21.649   0.409  52.551  1.00  0.00    +0.042 A 
ATOM      5  C   UNL     1      20.273   0.248  52.773  1.00  0.00    +0.026 A 
ATOM      6  C   UNL     1      22.528  -0.467  53.210  1.00  0.00    +0.026 A 
ATOM      7  C   UNL     1      19.791  -0.751  53.624  1.00  0.00    +0.002 A 
ATOM      8  C   UNL     1      22.050  -1.468  54.060  1.00  0.00    +0.002 A 
ATOM      9  C   UNL     1      20.680  -1.608  54.267  1.00  0.00    +0.000 A 
ENDBRANCH   1   4
BRANCH   1  10
ATOM     10  C   UNL     1      23.457   1.716  51.516  1.00  0.00    +0.111 A 
ATOM     11  C   UNL     1      24.129   2.596  50.694  1.00  0.00    +0.050 A 
ATOM     12  N   UNL     1      24.413   1.121  52.304  1.00  0.00    -0.341 N 
ATOM     13  C   UNL     1      25.527   2.494  50.961  1.00  0.00    -0.023 A 
ATOM     14  C   UNL     1      25.677   1.554  51.972  1.00  0.00    +0.050 A 
ATOM     15  H   UNL     1      24.206   0.441  53.020  1.00  0.00    +0.168 HD
ATOM     16  C   UNL     1      26.596   3.274  50.285  1.00  0.00    +0.047 C 
BRANCH  14  17
ATOM     17  C   UNL     1      26.868   1.035  52.643  1.00  0.00    -0.002 A 
ATOM     18  C   UNL     1      27.727   1.897  53.335  1.00  0.00    +0.010 A 
ATOM     19  C   UNL     1      27.174  -0.331  52.595  1.00  0.00    +0.010 A 
ATOM     20  C   UNL     1      28.870   1.403  53.969  1.00  0.00    +0.001 A 
ATOM     21  C   UNL     1      28.316  -0.826  53.230  1.00  0.00    +0.001 A 
ATOM     22  C   UNL     1      29.164   0.042  53.915  1.00  0.00    +0.000 A 
ENDBRANCH  14  17
ENDBRANCH   1  10
TORSDOF 4
ENDMDL
