REMARK SMILES Cc1cc(C)c(Cc2cc(C(=O)O)cc(O)c2O)[nH]1
REMARK SMILES IDX 8 1 9 2 10 3 14 4 15 5 17 6 7 7 6 8 2 9 3 10 19 11 4 12 1 13
REMARK SMILES IDX 5 15 18 16 11 18 12 19 13 20 16 22
REMARK H PARENT 19 14 18 17 13 21 16 23
ROOT
ATOM      1  C   UNL     1       0.833  -0.886   0.602  1.00  0.00    +0.004 A 
ATOM      2  C   UNL     1       1.532   0.335   0.653  1.00  0.00    +0.024 A 
ATOM      3  C   UNL     1       2.762   0.496  -0.006  1.00  0.00    +0.064 A 
ATOM      4  C   UNL     1       3.316  -0.568  -0.728  1.00  0.00    +0.065 A 
ATOM      5  C   UNL     1       2.630  -1.775  -0.775  1.00  0.00    +0.158 A 
ATOM      6  C   UNL     1       1.407  -1.934  -0.118  1.00  0.00    +0.161 A 
ENDROOT
BRANCH   1   7
ATOM      7  C   UNL     1      -0.495  -1.029   1.309  1.00  0.00    +0.093 C 
BRANCH   7   8
ATOM      8  C   UNL     1      -1.575  -0.186   0.700  1.00  0.00    +0.022 A 
ATOM      9  C   UNL     1      -3.003   1.548   0.551  1.00  0.00    +0.012 A 
ATOM     10  C   UNL     1      -3.196   0.750  -0.556  1.00  0.00    +0.026 A 
ATOM     11  N   UNL     1      -2.019   0.964   1.308  1.00  0.00    -0.362 N 
ATOM     12  C   UNL     1      -2.301  -0.351  -0.470  1.00  0.00    -0.030 A 
ATOM     13  C   UNL     1      -3.658   2.811   0.965  1.00  0.00    +0.064 C 
ATOM     14  H   UNL     1      -1.667   1.331   2.183  1.00  0.00    +0.166 HD
ATOM     15  C   UNL     1      -2.168  -1.457  -1.455  1.00  0.00    +0.046 C 
ENDBRANCH   7   8
ENDBRANCH   1   7
BRANCH   6  16
ATOM     16  O   UNL     1       0.781  -3.148  -0.197  1.00  0.00    -0.504 OA
ATOM     17  H   UNL     1       1.369  -3.696  -0.755  1.00  0.00    +0.293 HD
ENDBRANCH   6  16
BRANCH   3  18
ATOM     18  C   UNL     1       3.440   1.811   0.094  1.00  0.00    +0.335 C 
ATOM     19  O   UNL     1       3.051   2.769   0.736  1.00  0.00    -0.246 OA
BRANCH  18  20
ATOM     20  O   UNL     1       4.580   1.863  -0.617  1.00  0.00    -0.478 OA
ATOM     21  H   UNL     1       4.905   2.776  -0.465  1.00  0.00    +0.297 HD
ENDBRANCH  18  20
ENDBRANCH   3  18
BRANCH   5  22
ATOM     22  O   UNL     1       3.121  -2.853  -1.463  1.00  0.00    -0.504 OA
ATOM     23  H   UNL     1       3.961  -2.594  -1.881  1.00  0.00    +0.293 HD
ENDBRANCH   5  22
TORSDOF 6
