REMARK SMILES CCNc1ncnc2c1C(=Cc1cccc(C)c1)C(=O)N2C
REMARK SMILES IDX 4 1 5 2 6 3 7 4 8 5 9 6 10 7 11 8 19 9 20 10 21 11 22 12
REMARK SMILES IDX 3 13 2 15 1 16 12 17 13 18 18 19 14 20 16 21 15 22 17 23
REMARK H PARENT 3 14
ROOT
ATOM      1  C   UNL     1      -2.578  -0.457  -0.573  1.00  0.00    +0.139 A 
ATOM      2  N   UNL     1      -3.908  -0.258  -0.458  1.00  0.00    -0.219 NA
ATOM      3  C   UNL     1      -4.340   0.965  -0.091  1.00  0.00    +0.226 A 
ATOM      4  N   UNL     1      -3.578   2.031   0.170  1.00  0.00    -0.218 NA
ATOM      5  C   UNL     1      -2.271   1.783   0.061  1.00  0.00    +0.148 A 
ATOM      6  C   UNL     1      -1.703   0.569  -0.287  1.00  0.00    +0.073 A 
ATOM      7  C   UNL     1      -0.247   0.757  -0.255  1.00  0.00    +0.055 C 
ATOM      8  C   UNL     1       0.683  -0.196  -0.428  1.00  0.00    +0.023 C 
ATOM      9  C   UNL     1      -0.006   2.207   0.089  1.00  0.00    +0.260 C 
ATOM     10  O   UNL     1       1.059   2.785   0.186  1.00  0.00    -0.269 OA
ATOM     11  N   UNL     1      -1.272   2.739   0.274  1.00  0.00    -0.295 N 
ATOM     12  C   UNL     1      -1.565   4.098   0.634  1.00  0.00    +0.155 C 
ENDROOT
BRANCH   1  13
ATOM     13  N   UNL     1      -2.097  -1.712  -0.982  1.00  0.00    -0.370 N 
ATOM     14  H   UNL     1      -1.509  -1.575  -1.802  1.00  0.00    +0.162 HD
BRANCH  13  15
ATOM     15  C   UNL     1      -3.094  -2.754  -1.223  1.00  0.00    +0.111 C 
ATOM     16  C   UNL     1      -3.530  -3.408   0.079  1.00  0.00    +0.027 C 
ENDBRANCH  13  15
ENDBRANCH   1  13
BRANCH   8  17
ATOM     17  C   UNL     1       2.140  -0.032  -0.381  1.00  0.00    -0.025 A 
ATOM     18  C   UNL     1       2.816   0.778  -1.297  1.00  0.00    +0.008 A 
ATOM     19  C   UNL     1       2.877  -0.759   0.564  1.00  0.00    +0.011 A 
ATOM     20  C   UNL     1       4.207   0.883  -1.252  1.00  0.00    +0.001 A 
ATOM     21  C   UNL     1       4.276  -0.672   0.606  1.00  0.00    -0.051 A 
ATOM     22  C   UNL     1       4.933   0.165  -0.302  1.00  0.00    +0.003 A 
ATOM     23  C   UNL     1       5.051  -1.417   1.652  1.00  0.00    +0.044 C 
ENDBRANCH   8  17
TORSDOF 3
