MODEL 1
REMARK VINA RESULT:    -7.596      0.000      0.000
REMARK INTER + INTRA:          -9.330
REMARK INTER:                  -8.707
REMARK INTRA:                  -0.623
REMARK UNBOUND:                -0.623
REMARK SMILES Cc1cccc(-c2ccc(O)c([N+](=O)[O-])c2)c1
REMARK SMILES IDX 7 1 8 2 9 3 10 4 12 5 16 6 6 7 2 8 3 9 17 10 4 11 5 12 1 13
REMARK SMILES IDX 13 14 14 15 15 16 11 17
REMARK H PARENT 11 18
ROOT
ATOM      1  C   UNL     1      24.671   0.445  53.310  1.00  0.00    -0.011 A 
ATOM      2  C   UNL     1      25.032   1.303  52.259  1.00  0.00    +0.013 A 
ATOM      3  C   UNL     1      26.342   1.771  52.120  1.00  0.00    +0.054 A 
ATOM      4  C   UNL     1      27.323   1.390  53.032  1.00  0.00    +0.194 A 
ATOM      5  C   UNL     1      26.986   0.534  54.086  1.00  0.00    +0.311 A 
ATOM      6  C   UNL     1      25.667   0.065  54.225  1.00  0.00    +0.098 A 
ENDROOT
BRANCH   1   7
ATOM      7  C   UNL     1      23.288  -0.042  53.450  1.00  0.00    -0.018 A 
ATOM      8  C   UNL     1      20.972  -0.129  52.652  1.00  0.00    -0.051 A 
ATOM      9  C   UNL     1      20.640  -0.968  53.720  1.00  0.00    +0.003 A 
ATOM     10  C   UNL     1      22.290   0.337  52.533  1.00  0.00    +0.012 A 
ATOM     11  C   UNL     1      21.614  -1.355  54.638  1.00  0.00    +0.001 A 
ATOM     12  C   UNL     1      22.926  -0.896  54.503  1.00  0.00    +0.009 A 
ATOM     13  C   UNL     1      19.919   0.319  51.681  1.00  0.00    +0.044 C 
ENDBRANCH   1   7
BRANCH   5  14
ATOM     14  N   UNL     1      27.990   0.109  55.063  1.00  0.00    +0.066 N 
ATOM     15  O   UNL     1      29.131  -0.151  54.656  1.00  0.00    -0.258 OA
ATOM     16  O   UNL     1      27.638   0.039  56.253  1.00  0.00    -0.258 OA
ENDBRANCH   5  14
BRANCH   4  17
ATOM     17  O   UNL     1      28.568   1.910  52.799  1.00  0.00    -0.502 OA
ATOM     18  H   UNL     1      28.586   2.858  53.049  1.00  0.00    +0.293 HD
ENDBRANCH   4  17
TORSDOF 3
ENDMDL
MODEL 2
REMARK VINA RESULT:    -7.582      0.763      1.876
REMARK INTER + INTRA:          -9.313
REMARK INTER:                  -8.672
REMARK INTRA:                  -0.641
REMARK UNBOUND:                -0.623
REMARK SMILES Cc1cccc(-c2ccc(O)c([N+](=O)[O-])c2)c1
REMARK SMILES IDX 7 1 8 2 9 3 10 4 12 5 16 6 6 7 2 8 3 9 17 10 4 11 5 12 1 13
REMARK SMILES IDX 13 14 14 15 15 16 11 17
REMARK H PARENT 11 18
ROOT
ATOM      1  C   UNL     1      25.113   0.957  52.817  1.00  0.00    -0.011 A 
ATOM      2  C   UNL     1      25.727   1.883  51.959  1.00  0.00    +0.013 A 
ATOM      3  C   UNL     1      27.081   2.208  52.089  1.00  0.00    +0.054 A 
ATOM      4  C   UNL     1      27.853   1.612  53.084  1.00  0.00    +0.194 A 
ATOM      5  C   UNL     1      27.261   0.685  53.949  1.00  0.00    +0.311 A 
ATOM      6  C   UNL     1      25.899   0.360  53.817  1.00  0.00    +0.098 A 
ENDROOT
BRANCH   1   7
ATOM      7  C   UNL     1      23.686   0.623  52.675  1.00  0.00    -0.018 A 
ATOM      8  C   UNL     1      21.701  -0.600  53.434  1.00  0.00    -0.051 A 
ATOM      9  C   UNL     1      20.956  -0.022  52.401  1.00  0.00    +0.003 A 
ATOM     10  C   UNL     1      23.062  -0.282  53.554  1.00  0.00    +0.012 A 
ATOM     11  C   UNL     1      21.555   0.877  51.521  1.00  0.00    +0.001 A 
ATOM     12  C   UNL     1      22.907   1.197  51.658  1.00  0.00    +0.009 A 
ATOM     13  C   UNL     1      21.070  -1.596  54.362  1.00  0.00    +0.044 C 
ENDBRANCH   1   7
BRANCH   5  14
ATOM     14  N   UNL     1      28.041   0.035  55.005  1.00  0.00    +0.066 N 
ATOM     15  O   UNL     1      27.610   0.084  56.166  1.00  0.00    -0.258 OA
ATOM     16  O   UNL     1      29.093  -0.534  54.671  1.00  0.00    -0.258 OA
ENDBRANCH   5  14
BRANCH   4  17
ATOM     17  O   UNL     1      29.163   2.006  53.118  1.00  0.00    -0.502 OA
ATOM     18  H   UNL     1      29.463   2.088  54.048  1.00  0.00    +0.293 HD
ENDBRANCH   4  17
TORSDOF 3
ENDMDL
MODEL 3
REMARK VINA RESULT:    -7.425      1.495      2.669
REMARK INTER + INTRA:          -9.134
REMARK INTER:                  -8.572
REMARK INTRA:                  -0.562
REMARK UNBOUND:                -0.623
REMARK SMILES Cc1cccc(-c2ccc(O)c([N+](=O)[O-])c2)c1
REMARK SMILES IDX 7 1 8 2 9 3 10 4 12 5 16 6 6 7 2 8 3 9 17 10 4 11 5 12 1 13
REMARK SMILES IDX 13 14 14 15 15 16 11 17
REMARK H PARENT 11 18
ROOT
ATOM      1  C   UNL     1      25.939  -0.057  53.160  1.00  0.00    -0.011 A 
ATOM      2  C   UNL     1      26.573  -1.297  52.981  1.00  0.00    +0.013 A 
ATOM      3  C   UNL     1      27.959  -1.430  53.110  1.00  0.00    +0.054 A 
ATOM      4  C   UNL     1      28.743  -0.322  53.423  1.00  0.00    +0.194 A 
ATOM      5  C   UNL     1      28.132   0.923  53.607  1.00  0.00    +0.311 A 
ATOM      6  C   UNL     1      26.738   1.055  53.476  1.00  0.00    +0.098 A 
ENDROOT
BRANCH   1   7
ATOM      7  C   UNL     1      24.479   0.074  53.020  1.00  0.00    -0.018 A 
ATOM      8  C   UNL     1      22.210  -0.599  53.661  1.00  0.00    -0.051 A 
ATOM      9  C   UNL     1      21.685   0.322  52.749  1.00  0.00    +0.003 A 
ATOM     10  C   UNL     1      23.603  -0.723  53.779  1.00  0.00    +0.012 A 
ATOM     11  C   UNL     1      22.535   1.122  51.989  1.00  0.00    +0.001 A 
ATOM     12  C   UNL     1      23.919   0.999  52.125  1.00  0.00    +0.009 A 
ATOM     13  C   UNL     1      21.299  -1.487  54.456  1.00  0.00    +0.044 C 
ENDBRANCH   1   7
BRANCH   5  14
ATOM     14  N   UNL     1      28.923   2.109  53.939  1.00  0.00    +0.066 N 
ATOM     15  O   UNL     1      29.025   3.003  53.088  1.00  0.00    -0.258 OA
ATOM     16  O   UNL     1      29.446   2.152  55.066  1.00  0.00    -0.258 OA
ENDBRANCH   5  14
BRANCH   4  17
ATOM     17  O   UNL     1      30.086  -0.570  53.522  1.00  0.00    -0.502 OA
ATOM     18  H   UNL     1      30.245  -1.294  54.164  1.00  0.00    +0.293 HD
ENDBRANCH   4  17
TORSDOF 3
ENDMDL
MODEL 4
REMARK VINA RESULT:    -7.384      1.999      4.369
REMARK INTER + INTRA:          -9.087
REMARK INTER:                  -8.448
REMARK INTRA:                  -0.640
REMARK UNBOUND:                -0.623
REMARK SMILES Cc1cccc(-c2ccc(O)c([N+](=O)[O-])c2)c1
REMARK SMILES IDX 7 1 8 2 9 3 10 4 12 5 16 6 6 7 2 8 3 9 17 10 4 11 5 12 1 13
REMARK SMILES IDX 13 14 14 15 15 16 11 17
REMARK H PARENT 11 18
ROOT
ATOM      1  C   UNL     1      24.735   0.860  52.779  1.00  0.00    -0.011 A 
ATOM      2  C   UNL     1      23.654   0.086  53.233  1.00  0.00    +0.013 A 
ATOM      3  C   UNL     1      23.777  -0.752  54.345  1.00  0.00    +0.054 A 
ATOM      4  C   UNL     1      24.987  -0.835  55.031  1.00  0.00    +0.194 A 
ATOM      5  C   UNL     1      26.076  -0.072  54.597  1.00  0.00    +0.311 A 
ATOM      6  C   UNL     1      25.951   0.770  53.478  1.00  0.00    +0.098 A 
ENDROOT
BRANCH   1   7
ATOM      7  C   UNL     1      24.598   1.738  51.606  1.00  0.00    -0.018 A 
ATOM      8  C   UNL     1      25.591   3.252  49.954  1.00  0.00    -0.051 A 
ATOM      9  C   UNL     1      24.337   3.423  49.362  1.00  0.00    +0.003 A 
ATOM     10  C   UNL     1      25.709   2.422  51.078  1.00  0.00    +0.012 A 
ATOM     11  C   UNL     1      23.224   2.756  49.869  1.00  0.00    +0.001 A 
ATOM     12  C   UNL     1      23.355   1.919  50.980  1.00  0.00    +0.009 A 
ATOM     13  C   UNL     1      26.786   3.998  49.433  1.00  0.00    +0.044 C 
ENDBRANCH   1   7
BRANCH   5  14
ATOM     14  N   UNL     1      27.363  -0.130  55.293  1.00  0.00    +0.066 N 
ATOM     15  O   UNL     1      28.376  -0.397  54.632  1.00  0.00    -0.258 OA
ATOM     16  O   UNL     1      27.363   0.097  56.515  1.00  0.00    -0.258 OA
ENDBRANCH   5  14
BRANCH   4  17
ATOM     17  O   UNL     1      24.991  -1.688  56.102  1.00  0.00    -0.502 OA
ATOM     18  H   UNL     1      25.755  -2.299  56.038  1.00  0.00    +0.293 HD
ENDBRANCH   4  17
TORSDOF 3
ENDMDL
MODEL 5
REMARK VINA RESULT:    -7.251      2.103      4.319
REMARK INTER + INTRA:          -8.934
REMARK INTER:                  -8.314
REMARK INTRA:                  -0.621
REMARK UNBOUND:                -0.623
REMARK SMILES Cc1cccc(-c2ccc(O)c([N+](=O)[O-])c2)c1
REMARK SMILES IDX 7 1 8 2 9 3 10 4 12 5 16 6 6 7 2 8 3 9 17 10 4 11 5 12 1 13
REMARK SMILES IDX 13 14 14 15 15 16 11 17
REMARK H PARENT 11 18
ROOT
ATOM      1  C   UNL     1      25.218   1.097  52.648  1.00  0.00    -0.011 A 
ATOM      2  C   UNL     1      24.084   0.309  52.904  1.00  0.00    +0.013 A 
ATOM      3  C   UNL     1      24.039  -0.566  53.994  1.00  0.00    +0.054 A 
ATOM      4  C   UNL     1      25.129  -0.673  54.854  1.00  0.00    +0.194 A 
ATOM      5  C   UNL     1      26.269   0.104  54.618  1.00  0.00    +0.311 A 
ATOM      6  C   UNL     1      26.314   0.983  53.521  1.00  0.00    +0.098 A 
ENDROOT
BRANCH   1   7
ATOM      7  C   UNL     1      25.260   2.014  51.497  1.00  0.00    -0.018 A 
ATOM      8  C   UNL     1      24.103   3.327  49.780  1.00  0.00    -0.051 A 
ATOM      9  C   UNL     1      25.337   3.766  49.290  1.00  0.00    +0.003 A 
ATOM     10  C   UNL     1      24.076   2.446  50.870  1.00  0.00    +0.012 A 
ATOM     11  C   UNL     1      26.521   3.351  49.896  1.00  0.00    +0.001 A 
ATOM     12  C   UNL     1      26.482   2.484  50.991  1.00  0.00    +0.009 A 
ATOM     13  C   UNL     1      22.827   3.743  49.108  1.00  0.00    +0.044 C 
ENDBRANCH   1   7
BRANCH   5  14
ATOM     14  N   UNL     1      27.434   0.021  55.501  1.00  0.00    +0.066 N 
ATOM     15  O   UNL     1      28.561   0.013  54.986  1.00  0.00    -0.258 OA
ATOM     16  O   UNL     1      27.222  -0.033  56.724  1.00  0.00    -0.258 OA
ENDBRANCH   5  14
BRANCH   4  17
ATOM     17  O   UNL     1      24.973  -1.561  55.883  1.00  0.00    -0.502 OA
ATOM     18  H   UNL     1      25.267  -1.151  56.724  1.00  0.00    +0.293 HD
ENDBRANCH   4  17
TORSDOF 3
ENDMDL
MODEL 6
REMARK VINA RESULT:    -7.062      1.381      2.860
REMARK INTER + INTRA:          -8.717
REMARK INTER:                  -8.094
REMARK INTRA:                  -0.623
REMARK UNBOUND:                -0.623
REMARK SMILES Cc1cccc(-c2ccc(O)c([N+](=O)[O-])c2)c1
REMARK SMILES IDX 7 1 8 2 9 3 10 4 12 5 16 6 6 7 2 8 3 9 17 10 4 11 5 12 1 13
REMARK SMILES IDX 13 14 14 15 15 16 11 17
REMARK H PARENT 11 18
ROOT
ATOM      1  C   UNL     1      23.994   0.521  52.972  1.00  0.00    -0.011 A 
ATOM      2  C   UNL     1      24.132  -0.500  53.927  1.00  0.00    +0.013 A 
ATOM      3  C   UNL     1      25.314  -0.656  54.656  1.00  0.00    +0.054 A 
ATOM      4  C   UNL     1      26.388   0.206  54.447  1.00  0.00    +0.194 A 
ATOM      5  C   UNL     1      26.271   1.232  53.502  1.00  0.00    +0.311 A 
ATOM      6  C   UNL     1      25.081   1.388  52.769  1.00  0.00    +0.098 A 
ENDROOT
BRANCH   1   7
ATOM      7  C   UNL     1      22.746   0.678  52.206  1.00  0.00    -0.018 A 
ATOM      8  C   UNL     1      20.335   0.307  51.967  1.00  0.00    -0.051 A 
ATOM      9  C   UNL     1      20.359   0.974  50.738  1.00  0.00    +0.003 A 
ATOM     10  C   UNL     1      21.531   0.154  52.683  1.00  0.00    +0.012 A 
ATOM     11  C   UNL     1      21.551   1.501  50.248  1.00  0.00    +0.001 A 
ATOM     12  C   UNL     1      22.734   1.356  50.977  1.00  0.00    +0.009 A 
ATOM     13  C   UNL     1      19.060  -0.294  52.481  1.00  0.00    +0.044 C 
ENDBRANCH   1   7
BRANCH   5  14
ATOM     14  N   UNL     1      27.376   2.160  53.257  1.00  0.00    +0.066 N 
ATOM     15  O   UNL     1      27.664   2.431  52.083  1.00  0.00    -0.258 OA
ATOM     16  O   UNL     1      27.962   2.628  54.248  1.00  0.00    -0.258 OA
ENDBRANCH   5  14
BRANCH   4  17
ATOM     17  O   UNL     1      27.492  -0.043  55.216  1.00  0.00    -0.502 OA
ATOM     18  H   UNL     1      27.217  -0.335  56.111  1.00  0.00    +0.293 HD
ENDBRANCH   4  17
TORSDOF 3
ENDMDL
MODEL 7
REMARK VINA RESULT:    -6.936      4.329      6.619
REMARK INTER + INTRA:          -8.573
REMARK INTER:                  -7.953
REMARK INTRA:                  -0.620
REMARK UNBOUND:                -0.623
REMARK SMILES Cc1cccc(-c2ccc(O)c([N+](=O)[O-])c2)c1
REMARK SMILES IDX 7 1 8 2 9 3 10 4 12 5 16 6 6 7 2 8 3 9 17 10 4 11 5 12 1 13
REMARK SMILES IDX 13 14 14 15 15 16 11 17
REMARK H PARENT 11 18
ROOT
ATOM      1  C   UNL     1      23.404   0.303  53.351  1.00  0.00    -0.011 A 
ATOM      2  C   UNL     1      23.001  -0.853  54.038  1.00  0.00    +0.013 A 
ATOM      3  C   UNL     1      21.650  -1.124  54.274  1.00  0.00    +0.054 A 
ATOM      4  C   UNL     1      20.669  -0.242  53.827  1.00  0.00    +0.194 A 
ATOM      5  C   UNL     1      21.048   0.916  53.139  1.00  0.00    +0.311 A 
ATOM      6  C   UNL     1      22.408   1.187  52.903  1.00  0.00    +0.098 A 
ENDROOT
BRANCH   1   7
ATOM      7  C   UNL     1      24.829   0.583  53.109  1.00  0.00    -0.018 A 
ATOM      8  C   UNL     1      27.174   0.448  53.813  1.00  0.00    -0.051 A 
ATOM      9  C   UNL     1      27.557   1.121  52.649  1.00  0.00    +0.003 A 
ATOM     10  C   UNL     1      25.812   0.196  54.038  1.00  0.00    +0.012 A 
ATOM     11  C   UNL     1      26.600   1.512  51.715  1.00  0.00    +0.001 A 
ATOM     12  C   UNL     1      25.248   1.243  51.943  1.00  0.00    +0.009 A 
ATOM     13  C   UNL     1      28.197   0.057  54.838  1.00  0.00    +0.044 C 
ENDBRANCH   1   7
BRANCH   5  14
ATOM     14  N   UNL     1      20.046   1.865  52.651  1.00  0.00    +0.066 N 
ATOM     15  O   UNL     1      20.170   3.059  52.960  1.00  0.00    -0.258 OA
ATOM     16  O   UNL     1      19.126   1.415  51.947  1.00  0.00    -0.258 OA
ENDBRANCH   5  14
BRANCH   4  17
ATOM     17  O   UNL     1      19.382  -0.609  54.116  1.00  0.00    -0.502 OA
ATOM     18  H   UNL     1      19.383  -1.388  54.711  1.00  0.00    +0.293 HD
ENDBRANCH   4  17
TORSDOF 3
ENDMDL
MODEL 8
REMARK VINA RESULT:    -6.814      1.471      1.825
REMARK INTER + INTRA:          -8.434
REMARK INTER:                  -7.816
REMARK INTRA:                  -0.618
REMARK UNBOUND:                -0.623
REMARK SMILES Cc1cccc(-c2ccc(O)c([N+](=O)[O-])c2)c1
REMARK SMILES IDX 7 1 8 2 9 3 10 4 12 5 16 6 6 7 2 8 3 9 17 10 4 11 5 12 1 13
REMARK SMILES IDX 13 14 14 15 15 16 11 17
REMARK H PARENT 11 18
ROOT
ATOM      1  C   UNL     1      23.084   0.753  53.264  1.00  0.00    -0.011 A 
ATOM      2  C   UNL     1      23.339   2.116  53.042  1.00  0.00    +0.013 A 
ATOM      3  C   UNL     1      24.623   2.649  53.192  1.00  0.00    +0.054 A 
ATOM      4  C   UNL     1      25.683   1.827  53.568  1.00  0.00    +0.194 A 
ATOM      5  C   UNL     1      25.452   0.466  53.793  1.00  0.00    +0.311 A 
ATOM      6  C   UNL     1      24.160  -0.068  53.642  1.00  0.00    +0.098 A 
ENDROOT
BRANCH   1   7
ATOM      7  C   UNL     1      21.728   0.201  53.106  1.00  0.00    -0.018 A 
ATOM      8  C   UNL     1      19.597   0.104  51.899  1.00  0.00    -0.051 A 
ATOM      9  C   UNL     1      19.131  -0.852  52.807  1.00  0.00    +0.003 A 
ATOM     10  C   UNL     1      20.886   0.631  52.064  1.00  0.00    +0.012 A 
ATOM     11  C   UNL     1      19.949  -1.292  53.845  1.00  0.00    +0.001 A 
ATOM     12  C   UNL     1      21.236  -0.771  53.992  1.00  0.00    +0.009 A 
ATOM     13  C   UNL     1      18.707   0.606  50.800  1.00  0.00    +0.044 C 
ENDBRANCH   1   7
BRANCH   5  14
ATOM     14  N   UNL     1      26.542  -0.429  54.186  1.00  0.00    +0.066 N 
ATOM     15  O   UNL     1      26.697  -1.479  53.548  1.00  0.00    -0.258 OA
ATOM     16  O   UNL     1      27.254  -0.078  55.142  1.00  0.00    -0.258 OA
ENDBRANCH   5  14
BRANCH   4  17
ATOM     17  O   UNL     1      26.893   2.457  53.685  1.00  0.00    -0.502 OA
ATOM     18  H   UNL     1      26.756   3.410  53.869  1.00  0.00    +0.293 HD
ENDBRANCH   4  17
TORSDOF 3
ENDMDL
MODEL 9
REMARK VINA RESULT:    -6.742      2.763      3.698
REMARK INTER + INTRA:          -8.350
REMARK INTER:                  -7.711
REMARK INTRA:                  -0.639
REMARK UNBOUND:                -0.623
REMARK SMILES Cc1cccc(-c2ccc(O)c([N+](=O)[O-])c2)c1
REMARK SMILES IDX 7 1 8 2 9 3 10 4 12 5 16 6 6 7 2 8 3 9 17 10 4 11 5 12 1 13
REMARK SMILES IDX 13 14 14 15 15 16 11 17
REMARK H PARENT 11 18
ROOT
ATOM      1  C   UNL     1      23.907   1.006  52.610  1.00  0.00    -0.011 A 
ATOM      2  C   UNL     1      25.188   0.813  53.153  1.00  0.00    +0.013 A 
ATOM      3  C   UNL     1      26.290   1.539  52.690  1.00  0.00    +0.054 A 
ATOM      4  C   UNL     1      26.135   2.476  51.671  1.00  0.00    +0.194 A 
ATOM      5  C   UNL     1      24.867   2.685  51.117  1.00  0.00    +0.311 A 
ATOM      6  C   UNL     1      23.760   1.954  51.583  1.00  0.00    +0.098 A 
ENDROOT
BRANCH   1   7
ATOM      7  C   UNL     1      22.752   0.236  53.102  1.00  0.00    -0.018 A 
ATOM      8  C   UNL     1      20.371  -0.335  52.987  1.00  0.00    -0.051 A 
ATOM      9  C   UNL     1      20.540  -1.233  54.044  1.00  0.00    +0.003 A 
ATOM     10  C   UNL     1      21.476   0.401  52.533  1.00  0.00    +0.012 A 
ATOM     11  C   UNL     1      21.796  -1.412  54.621  1.00  0.00    +0.001 A 
ATOM     12  C   UNL     1      22.892  -0.685  54.152  1.00  0.00    +0.009 A 
ATOM     13  C   UNL     1      19.014  -0.112  52.387  1.00  0.00    +0.044 C 
ENDBRANCH   1   7
BRANCH   5  14
ATOM     14  N   UNL     1      24.665   3.663  50.047  1.00  0.00    +0.066 N 
ATOM     15  O   UNL     1      23.965   3.336  49.078  1.00  0.00    -0.258 OA
ATOM     16  O   UNL     1      25.207   4.774  50.176  1.00  0.00    -0.258 OA
ENDBRANCH   5  14
BRANCH   4  17
ATOM     17  O   UNL     1      27.282   3.124  51.298  1.00  0.00    -0.502 OA
ATOM     18  H   UNL     1      27.888   3.197  52.065  1.00  0.00    +0.293 HD
ENDBRANCH   4  17
TORSDOF 3
ENDMDL
