REMARK SMILES N#CC(C#N)=Cc1ncnc2c1C(=C(C#N)C(N)=C(C#N)C#N)C(=O)N2
REMARK SMILES IDX 17 1 19 2 20 3 21 4 22 5 23 6 14 7 7 8 8 9 12 10 9 11 11 12
REMARK SMILES IDX 13 13 10 14 26 15 24 16 15 17 25 18 16 19 6 21 1 22 2 23
REMARK SMILES IDX 3 24 4 25 5 26 18 27
REMARK H PARENT 26 20 18 28 18 29
ROOT
ATOM      1  C   UNL     1       1.726   0.645  -0.301  1.00  0.00    +0.079 C 
ATOM      2  C   UNL     1       2.248   1.600   0.520  1.00  0.00    +0.153 C 
ATOM      3  C   UNL     1       2.307   2.958   0.099  1.00  0.00    +0.113 C 
ATOM      4  N   UNL     1       2.341   4.041  -0.315  1.00  0.00    -0.192 NA
ATOM      5  C   UNL     1       2.716   1.306   1.834  1.00  0.00    +0.113 C 
ATOM      6  N   UNL     1       3.036   1.033   2.914  1.00  0.00    -0.192 NA
ENDROOT
BRANCH   1   7
ATOM      7  C   UNL     1       1.762  -0.790   0.064  1.00  0.00    +0.091 C 
ATOM      8  C   UNL     1      -1.666  -0.267   0.179  1.00  0.00    +0.079 A 
ATOM      9  N   UNL     1      -3.001  -0.451   0.041  1.00  0.00    -0.236 NA
ATOM     10  C   UNL     1      -0.782  -1.314   0.115  1.00  0.00    +0.057 A 
ATOM     11  C   UNL     1      -3.451  -1.708  -0.129  1.00  0.00    +0.224 A 
ATOM     12  C   UNL     1      -1.394  -2.555   0.004  1.00  0.00    +0.145 A 
ATOM     13  C   UNL     1       0.670  -1.576   0.200  1.00  0.00    +0.073 C 
ATOM     14  N   UNL     1      -2.695  -2.807  -0.129  1.00  0.00    -0.218 NA
ATOM     15  N   UNL     1      -0.462  -3.571   0.111  1.00  0.00    -0.306 N 
ATOM     16  C   UNL     1       0.805  -3.082   0.299  1.00  0.00    +0.259 C 
ATOM     17  C   UNL     1       3.095  -1.335   0.095  1.00  0.00    +0.102 C 
ATOM     18  O   UNL     1       1.811  -3.732   0.482  1.00  0.00    -0.269 OA
ATOM     19  N   UNL     1       4.209  -1.657   0.081  1.00  0.00    -0.192 NA
ATOM     20  H   UNL     1      -0.704  -4.551   0.117  1.00  0.00    +0.171 HD
BRANCH   8  21
ATOM     21  C   UNL     1      -1.322   1.105   0.553  1.00  0.00    +0.060 C 
ATOM     22  N   UNL     1      -3.060   2.133  -2.314  1.00  0.00    -0.192 NA
ATOM     23  C   UNL     1      -2.491   2.167  -1.302  1.00  0.00    +0.111 C 
ATOM     24  C   UNL     1      -1.753   2.213  -0.084  1.00  0.00    +0.131 C 
ATOM     25  C   UNL     1      -1.435   3.485   0.467  1.00  0.00    +0.111 C 
ATOM     26  N   UNL     1      -1.146   4.492   0.964  1.00  0.00    -0.192 NA
ENDBRANCH   8  21
ENDBRANCH   1   7
BRANCH   1  27
ATOM     27  N   UNL     1       1.167   0.908  -1.556  1.00  0.00    -0.396 N 
ATOM     28  H   UNL     1       1.439   1.799  -1.982  1.00  0.00    +0.156 HD
ATOM     29  H   UNL     1       1.291   0.155  -2.238  1.00  0.00    +0.156 HD
ENDBRANCH   1  27
TORSDOF 3
