REMARK SMILES Brc1cccc(-c2ccccc2)c1
REMARK SMILES IDX 1 1 2 2 3 3 4 4 5 5 6 6 13 7 7 8 8 9 12 10 9 11 11 12 10 13
REMARK H PARENT
ROOT
ATOM      1 Br   UNL     1      -4.058   2.301   0.648  1.00  0.00    -0.051 Br
ATOM      2  C   UNL     1      -2.944   0.820   0.272  1.00  0.00    +0.018 A 
ATOM      3  C   UNL     1      -3.515  -0.420  -0.000  1.00  0.00    +0.016 A 
ATOM      4  C   UNL     1      -2.692  -1.509  -0.275  1.00  0.00    +0.002 A 
ATOM      5  C   UNL     1      -1.303  -1.353  -0.277  1.00  0.00    +0.009 A 
ATOM      6  C   UNL     1      -0.711  -0.107  -0.005  1.00  0.00    -0.017 A 
ATOM      7  C   UNL     1      -1.557   0.981   0.271  1.00  0.00    +0.024 A 
ENDROOT
BRANCH   6   8
ATOM      8  C   UNL     1       0.752   0.054  -0.008  1.00  0.00    -0.018 A 
ATOM      9  C   UNL     1       1.574  -0.775   0.774  1.00  0.00    +0.009 A 
ATOM     10  C   UNL     1       1.370   1.041  -0.794  1.00  0.00    +0.009 A 
ATOM     11  C   UNL     1       2.963  -0.623   0.772  1.00  0.00    +0.001 A 
ATOM     12  C   UNL     1       2.760   1.194  -0.798  1.00  0.00    +0.001 A 
ATOM     13  C   UNL     1       3.555   0.362  -0.015  1.00  0.00    +0.000 A 
ENDBRANCH   6   8
TORSDOF 1
