MODEL 1
REMARK VINA RESULT:    -8.962      0.000      0.000
REMARK INTER + INTRA:         -12.073
REMARK INTER:                 -11.319
REMARK INTRA:                  -0.754
REMARK UNBOUND:                -0.754
REMARK SMILES CN(c1cccc(Cl)c1)c1ccc(-c2cc(O)ccc2[N+](=O)[O-])[nH]1
REMARK SMILES IDX 10 1 11 2 12 3 13 4 24 5 2 7 1 8 3 9 4 10 9 11 5 12 7 13
REMARK SMILES IDX 6 14 8 15 14 16 15 17 20 18 16 19 19 20 18 21 21 22 22 23
REMARK SMILES IDX 23 24 17 25
REMARK H PARENT 24 6 17 26
ROOT
ATOM      1  C   UNL     1      24.623   1.826  51.670  1.00  0.00    +0.110 A 
ATOM      2  C   UNL     1      24.028   1.376  52.830  1.00  0.00    +0.047 A 
ATOM      3  C   UNL     1      24.977   0.592  53.530  1.00  0.00    +0.031 A 
ATOM      4  C   UNL     1      26.143   0.559  52.785  1.00  0.00    +0.054 A 
ATOM      5  N   UNL     1      25.890   1.291  51.643  1.00  0.00    -0.341 N 
ATOM      6  H   UNL     1      26.545   1.448  50.885  1.00  0.00    +0.168 HD
ENDROOT
BRANCH   1   7
ATOM      7  N   UNL     1      24.168   2.587  50.628  1.00  0.00    -0.331 N 
ATOM      8  C   UNL     1      22.732   2.555  50.323  1.00  0.00    +0.152 C 
BRANCH   7   9
ATOM      9  C   UNL     1      24.755   3.833  50.265  1.00  0.00    +0.043 A 
ATOM     10  C   UNL     1      25.892   3.905  49.443  1.00  0.00    +0.026 A 
ATOM     11  C   UNL     1      24.192   5.032  50.726  1.00  0.00    +0.046 A 
ATOM     12  C   UNL     1      26.448   5.137  49.088  1.00  0.00    +0.004 A 
ATOM     13  C   UNL     1      24.750   6.260  50.371  1.00  0.00    +0.043 A 
ATOM     14  C   UNL     1      25.876   6.318  49.553  1.00  0.00    +0.020 A 
ATOM     15 Cl   UNL     1      24.037   7.719  50.945  1.00  0.00    -0.084 Cl
ENDBRANCH   7   9
ENDBRANCH   1   7
BRANCH   4  16
ATOM     16  C   UNL     1      27.408  -0.137  53.047  1.00  0.00    +0.079 A 
ATOM     17  C   UNL     1      27.428  -1.539  52.935  1.00  0.00    +0.063 A 
ATOM     18  C   UNL     1      28.603   0.492  53.440  1.00  0.00    +0.278 A 
ATOM     19  C   UNL     1      28.596  -2.257  53.203  1.00  0.00    +0.116 A 
ATOM     20  C   UNL     1      29.776  -0.227  53.715  1.00  0.00    +0.090 A 
ATOM     21  C   UNL     1      29.766  -1.614  53.592  1.00  0.00    +0.053 A 
BRANCH  18  22
ATOM     22  N   UNL     1      28.671   1.929  53.589  1.00  0.00    +0.063 N 
ATOM     23  O   UNL     1      28.429   2.608  52.581  1.00  0.00    -0.258 OA
ATOM     24  O   UNL     1      29.002   2.368  54.698  1.00  0.00    -0.258 OA
ENDBRANCH  18  22
BRANCH  19  25
ATOM     25  O   UNL     1      28.632  -3.616  53.092  1.00  0.00    -0.508 OA
ATOM     26  H   UNL     1      28.579  -4.010  53.979  1.00  0.00    +0.293 HD
ENDBRANCH  19  25
ENDBRANCH   4  16
TORSDOF 5
ENDMDL
MODEL 2
REMARK VINA RESULT:    -8.901      1.033      1.442
REMARK INTER + INTRA:         -11.997
REMARK INTER:                 -11.218
REMARK INTRA:                  -0.779
REMARK UNBOUND:                -0.754
REMARK SMILES CN(c1cccc(Cl)c1)c1ccc(-c2cc(O)ccc2[N+](=O)[O-])[nH]1
REMARK SMILES IDX 10 1 11 2 12 3 13 4 24 5 2 7 1 8 3 9 4 10 9 11 5 12 7 13
REMARK SMILES IDX 6 14 8 15 14 16 15 17 20 18 16 19 19 20 18 21 21 22 22 23
REMARK SMILES IDX 23 24 17 25
REMARK H PARENT 24 6 17 26
ROOT
ATOM      1  C   UNL     1      24.154   1.694  51.612  1.00  0.00    +0.110 A 
ATOM      2  C   UNL     1      23.527   0.971  52.606  1.00  0.00    +0.047 A 
ATOM      3  C   UNL     1      24.511   0.193  53.263  1.00  0.00    +0.031 A 
ATOM      4  C   UNL     1      25.731   0.437  52.656  1.00  0.00    +0.054 A 
ATOM      5  N   UNL     1      25.480   1.330  51.634  1.00  0.00    -0.341 N 
ATOM      6  H   UNL     1      26.171   1.700  50.991  1.00  0.00    +0.168 HD
ENDROOT
BRANCH   1   7
ATOM      7  N   UNL     1      23.691   2.572  50.671  1.00  0.00    -0.331 N 
ATOM      8  C   UNL     1      22.299   2.436  50.221  1.00  0.00    +0.152 C 
BRANCH   7   9
ATOM      9  C   UNL     1      24.143   3.921  50.580  1.00  0.00    +0.043 A 
ATOM     10  C   UNL     1      23.559   4.950  51.338  1.00  0.00    +0.026 A 
ATOM     11  C   UNL     1      25.202   4.248  49.721  1.00  0.00    +0.046 A 
ATOM     12  C   UNL     1      24.022   6.265  51.245  1.00  0.00    +0.004 A 
ATOM     13  C   UNL     1      25.660   5.562  49.629  1.00  0.00    +0.043 A 
ATOM     14  C   UNL     1      25.075   6.573  50.388  1.00  0.00    +0.020 A 
ATOM     15 Cl   UNL     1      26.966   5.938  48.571  1.00  0.00    -0.084 Cl
ENDBRANCH   7   9
ENDBRANCH   1   7
BRANCH   4  16
ATOM     16  C   UNL     1      27.052  -0.138  52.935  1.00  0.00    +0.079 A 
ATOM     17  C   UNL     1      27.175  -1.538  52.946  1.00  0.00    +0.063 A 
ATOM     18  C   UNL     1      28.206   0.610  53.227  1.00  0.00    +0.278 A 
ATOM     19  C   UNL     1      28.401  -2.142  53.235  1.00  0.00    +0.116 A 
ATOM     20  C   UNL     1      29.438   0.006  53.524  1.00  0.00    +0.090 A 
ATOM     21  C   UNL     1      29.529  -1.383  53.524  1.00  0.00    +0.053 A 
BRANCH  18  22
ATOM     22  N   UNL     1      28.169   2.056  53.247  1.00  0.00    +0.063 N 
ATOM     23  O   UNL     1      28.009   2.626  52.158  1.00  0.00    -0.258 OA
ATOM     24  O   UNL     1      28.338   2.612  54.339  1.00  0.00    -0.258 OA
ENDBRANCH  18  22
BRANCH  19  25
ATOM     25  O   UNL     1      28.538  -3.499  53.244  1.00  0.00    -0.508 OA
ATOM     26  H   UNL     1      29.077  -3.772  52.483  1.00  0.00    +0.293 HD
ENDBRANCH  19  25
ENDBRANCH   4  16
TORSDOF 5
ENDMDL
MODEL 3
REMARK VINA RESULT:    -8.795      1.707      2.859
REMARK INTER + INTRA:         -11.862
REMARK INTER:                 -11.156
REMARK INTRA:                  -0.706
REMARK UNBOUND:                -0.754
REMARK SMILES CN(c1cccc(Cl)c1)c1ccc(-c2cc(O)ccc2[N+](=O)[O-])[nH]1
REMARK SMILES IDX 10 1 11 2 12 3 13 4 24 5 2 7 1 8 3 9 4 10 9 11 5 12 7 13
REMARK SMILES IDX 6 14 8 15 14 16 15 17 20 18 16 19 19 20 18 21 21 22 22 23
REMARK SMILES IDX 23 24 17 25
REMARK H PARENT 24 6 17 26
ROOT
ATOM      1  C   UNL     1      24.820   2.294  51.918  1.00  0.00    +0.110 A 
ATOM      2  C   UNL     1      24.317   1.996  53.167  1.00  0.00    +0.047 A 
ATOM      3  C   UNL     1      25.246   1.149  53.820  1.00  0.00    +0.031 A 
ATOM      4  C   UNL     1      26.306   0.926  52.958  1.00  0.00    +0.054 A 
ATOM      5  N   UNL     1      26.007   1.609  51.796  1.00  0.00    -0.341 N 
ATOM      6  H   UNL     1      26.583   1.635  50.963  1.00  0.00    +0.168 HD
ENDROOT
BRANCH   1   7
ATOM      7  N   UNL     1      24.337   3.036  50.876  1.00  0.00    -0.331 N 
ATOM      8  C   UNL     1      25.249   3.980  50.216  1.00  0.00    +0.152 C 
BRANCH   7   9
ATOM      9  C   UNL     1      23.340   2.554  49.979  1.00  0.00    +0.043 A 
ATOM     10  C   UNL     1      22.497   1.482  50.315  1.00  0.00    +0.026 A 
ATOM     11  C   UNL     1      23.179   3.158  48.723  1.00  0.00    +0.046 A 
ATOM     12  C   UNL     1      21.517   1.030  49.427  1.00  0.00    +0.004 A 
ATOM     13  C   UNL     1      22.201   2.704  47.839  1.00  0.00    +0.043 A 
ATOM     14  C   UNL     1      21.368   1.642  48.185  1.00  0.00    +0.020 A 
ATOM     15 Cl   UNL     1      22.017   3.465  46.305  1.00  0.00    -0.084 Cl
ENDBRANCH   7   9
ENDBRANCH   1   7
BRANCH   4  16
ATOM     16  C   UNL     1      27.505   0.100  53.136  1.00  0.00    +0.079 A 
ATOM     17  C   UNL     1      27.389  -1.287  52.940  1.00  0.00    +0.063 A 
ATOM     18  C   UNL     1      28.765   0.590  53.525  1.00  0.00    +0.278 A 
ATOM     19  C   UNL     1      28.490  -2.127  53.126  1.00  0.00    +0.116 A 
ATOM     20  C   UNL     1      29.872  -0.252  53.718  1.00  0.00    +0.090 A 
ATOM     21  C   UNL     1      29.726  -1.621  53.513  1.00  0.00    +0.053 A 
BRANCH  18  22
ATOM     22  N   UNL     1      28.974   2.002  53.757  1.00  0.00    +0.063 N 
ATOM     23  O   UNL     1      28.788   2.760  52.795  1.00  0.00    -0.258 OA
ATOM     24  O   UNL     1      29.358   2.339  54.884  1.00  0.00    -0.258 OA
ENDBRANCH  18  22
BRANCH  19  25
ATOM     25  O   UNL     1      28.394  -3.474  52.933  1.00  0.00    -0.508 OA
ATOM     26  H   UNL     1      28.142  -3.648  52.011  1.00  0.00    +0.293 HD
ENDBRANCH  19  25
ENDBRANCH   4  16
TORSDOF 5
ENDMDL
MODEL 4
REMARK VINA RESULT:    -8.730      3.214      4.659
REMARK INTER + INTRA:         -11.781
REMARK INTER:                 -11.794
REMARK INTRA:                   0.014
REMARK UNBOUND:                -0.754
REMARK SMILES CN(c1cccc(Cl)c1)c1ccc(-c2cc(O)ccc2[N+](=O)[O-])[nH]1
REMARK SMILES IDX 10 1 11 2 12 3 13 4 24 5 2 7 1 8 3 9 4 10 9 11 5 12 7 13
REMARK SMILES IDX 6 14 8 15 14 16 15 17 20 18 16 19 19 20 18 21 21 22 22 23
REMARK SMILES IDX 23 24 17 25
REMARK H PARENT 24 6 17 26
ROOT
ATOM      1  C   UNL     1      24.145   1.490  52.767  1.00  0.00    +0.110 A 
ATOM      2  C   UNL     1      24.681   2.487  53.555  1.00  0.00    +0.047 A 
ATOM      3  C   UNL     1      26.020   2.134  53.852  1.00  0.00    +0.031 A 
ATOM      4  C   UNL     1      26.288   0.915  53.252  1.00  0.00    +0.054 A 
ATOM      5  N   UNL     1      25.121   0.530  52.625  1.00  0.00    -0.341 N 
ATOM      6  H   UNL     1      24.987  -0.328  52.104  1.00  0.00    +0.168 HD
ENDROOT
BRANCH   1   7
ATOM      7  N   UNL     1      22.905   1.304  52.221  1.00  0.00    -0.331 N 
ATOM      8  C   UNL     1      22.771   1.395  50.761  1.00  0.00    +0.152 C 
BRANCH   7   9
ATOM      9  C   UNL     1      21.934   0.428  52.784  1.00  0.00    +0.043 A 
ATOM     10  C   UNL     1      22.231  -0.404  53.877  1.00  0.00    +0.026 A 
ATOM     11  C   UNL     1      20.637   0.384  52.250  1.00  0.00    +0.046 A 
ATOM     12  C   UNL     1      21.262  -1.249  54.424  1.00  0.00    +0.004 A 
ATOM     13  C   UNL     1      19.673  -0.462  52.798  1.00  0.00    +0.043 A 
ATOM     14  C   UNL     1      19.979  -1.279  53.883  1.00  0.00    +0.020 A 
ATOM     15 Cl   UNL     1      18.087  -0.493  52.128  1.00  0.00    -0.084 Cl
ENDBRANCH   7   9
ENDBRANCH   1   7
BRANCH   4  16
ATOM     16  C   UNL     1      27.509   0.101  53.281  1.00  0.00    +0.079 A 
ATOM     17  C   UNL     1      27.389  -1.281  53.054  1.00  0.00    +0.063 A 
ATOM     18  C   UNL     1      28.796   0.597  53.555  1.00  0.00    +0.278 A 
ATOM     19  C   UNL     1      28.513  -2.109  53.099  1.00  0.00    +0.116 A 
ATOM     20  C   UNL     1      29.926  -0.233  53.607  1.00  0.00    +0.090 A 
ATOM     21  C   UNL     1      29.777  -1.597  53.374  1.00  0.00    +0.053 A 
BRANCH  18  22
ATOM     22  N   UNL     1      29.011   2.005  53.810  1.00  0.00    +0.063 N 
ATOM     23  O   UNL     1      28.917   2.769  52.840  1.00  0.00    -0.258 OA
ATOM     24  O   UNL     1      29.309   2.332  54.966  1.00  0.00    -0.258 OA
ENDBRANCH  18  22
BRANCH  19  25
ATOM     25  O   UNL     1      28.414  -3.451  52.875  1.00  0.00    -0.508 OA
ATOM     26  H   UNL     1      27.837  -3.846  53.549  1.00  0.00    +0.293 HD
ENDBRANCH  19  25
ENDBRANCH   4  16
TORSDOF 5
ENDMDL
MODEL 5
REMARK VINA RESULT:    -8.041      4.840      7.537
REMARK INTER + INTRA:         -10.910
REMARK INTER:                 -10.432
REMARK INTRA:                  -0.478
REMARK UNBOUND:                -0.754
REMARK SMILES CN(c1cccc(Cl)c1)c1ccc(-c2cc(O)ccc2[N+](=O)[O-])[nH]1
REMARK SMILES IDX 10 1 11 2 12 3 13 4 24 5 2 7 1 8 3 9 4 10 9 11 5 12 7 13
REMARK SMILES IDX 6 14 8 15 14 16 15 17 20 18 16 19 19 20 18 21 21 22 22 23
REMARK SMILES IDX 23 24 17 25
REMARK H PARENT 24 6 17 26
ROOT
ATOM      1  C   UNL     1      24.326   0.365  52.945  1.00  0.00    +0.110 A 
ATOM      2  C   UNL     1      24.113  -0.473  54.019  1.00  0.00    +0.047 A 
ATOM      3  C   UNL     1      22.732  -0.783  54.061  1.00  0.00    +0.031 A 
ATOM      4  C   UNL     1      22.109  -0.121  53.018  1.00  0.00    +0.054 A 
ATOM      5  N   UNL     1      23.097   0.596  52.373  1.00  0.00    -0.341 N 
ATOM      6  H   UNL     1      22.960   1.197  51.569  1.00  0.00    +0.168 HD
ENDROOT
BRANCH   1   7
ATOM      7  N   UNL     1      25.445   0.983  52.457  1.00  0.00    -0.331 N 
ATOM      8  C   UNL     1      25.325   2.376  52.006  1.00  0.00    +0.152 C 
BRANCH   7   9
ATOM      9  C   UNL     1      26.758   0.695  52.930  1.00  0.00    +0.043 A 
ATOM     10  C   UNL     1      27.581   1.689  53.483  1.00  0.00    +0.026 A 
ATOM     11  C   UNL     1      27.257  -0.614  52.854  1.00  0.00    +0.046 A 
ATOM     12  C   UNL     1      28.862   1.386  53.952  1.00  0.00    +0.004 A 
ATOM     13  C   UNL     1      28.536  -0.913  53.321  1.00  0.00    +0.043 A 
ATOM     14  C   UNL     1      29.342   0.081  53.870  1.00  0.00    +0.020 A 
ATOM     15 Cl   UNL     1      29.125  -2.529  53.222  1.00  0.00    -0.084 Cl
ENDBRANCH   7   9
ENDBRANCH   1   7
BRANCH   4  16
ATOM     16  C   UNL     1      20.691  -0.081  52.642  1.00  0.00    +0.079 A 
ATOM     17  C   UNL     1      19.765  -0.723  53.483  1.00  0.00    +0.063 A 
ATOM     18  C   UNL     1      20.187   0.526  51.478  1.00  0.00    +0.278 A 
ATOM     19  C   UNL     1      18.406  -0.743  53.160  1.00  0.00    +0.116 A 
ATOM     20  C   UNL     1      18.823   0.502  51.148  1.00  0.00    +0.090 A 
ATOM     21  C   UNL     1      17.930  -0.138  52.002  1.00  0.00    +0.053 A 
BRANCH  18  22
ATOM     22  N   UNL     1      21.069   1.201  50.551  1.00  0.00    +0.063 N 
ATOM     23  O   UNL     1      21.572   0.510  49.654  1.00  0.00    -0.258 OA
ATOM     24  O   UNL     1      21.283   2.403  50.747  1.00  0.00    -0.258 OA
ENDBRANCH  18  22
BRANCH  19  25
ATOM     25  O   UNL     1      17.495  -1.356  53.969  1.00  0.00    -0.508 OA
ATOM     26  H   UNL     1      17.006  -0.682  54.469  1.00  0.00    +0.293 HD
ENDBRANCH  19  25
ENDBRANCH   4  16
TORSDOF 5
ENDMDL
MODEL 6
REMARK VINA RESULT:    -7.903      2.694      3.924
REMARK INTER + INTRA:         -10.735
REMARK INTER:                 -10.096
REMARK INTRA:                  -0.640
REMARK UNBOUND:                -0.754
REMARK SMILES CN(c1cccc(Cl)c1)c1ccc(-c2cc(O)ccc2[N+](=O)[O-])[nH]1
REMARK SMILES IDX 10 1 11 2 12 3 13 4 24 5 2 7 1 8 3 9 4 10 9 11 5 12 7 13
REMARK SMILES IDX 6 14 8 15 14 16 15 17 20 18 16 19 19 20 18 21 21 22 22 23
REMARK SMILES IDX 23 24 17 25
REMARK H PARENT 24 6 17 26
ROOT
ATOM      1  C   UNL     1      23.592  -0.195  53.354  1.00  0.00    +0.110 A 
ATOM      2  C   UNL     1      23.653  -0.866  54.558  1.00  0.00    +0.047 A 
ATOM      3  C   UNL     1      25.012  -0.929  54.952  1.00  0.00    +0.031 A 
ATOM      4  C   UNL     1      25.774  -0.307  53.977  1.00  0.00    +0.054 A 
ATOM      5  N   UNL     1      24.888   0.102  53.001  1.00  0.00    -0.341 N 
ATOM      6  H   UNL     1      25.136   0.582  52.144  1.00  0.00    +0.168 HD
ENDROOT
BRANCH   1   7
ATOM      7  N   UNL     1      22.556   0.124  52.521  1.00  0.00    -0.331 N 
ATOM      8  C   UNL     1      21.202  -0.298  52.906  1.00  0.00    +0.152 C 
BRANCH   7   9
ATOM      9  C   UNL     1      22.532   1.311  51.733  1.00  0.00    +0.043 A 
ATOM     10  C   UNL     1      22.621   2.587  52.314  1.00  0.00    +0.026 A 
ATOM     11  C   UNL     1      22.422   1.222  50.338  1.00  0.00    +0.046 A 
ATOM     12  C   UNL     1      22.607   3.740  51.525  1.00  0.00    +0.004 A 
ATOM     13  C   UNL     1      22.407   2.375  49.553  1.00  0.00    +0.043 A 
ATOM     14  C   UNL     1      22.499   3.635  50.141  1.00  0.00    +0.020 A 
ATOM     15 Cl   UNL     1      22.277   2.241  47.841  1.00  0.00    -0.084 Cl
ENDBRANCH   7   9
ENDBRANCH   1   7
BRANCH   4  16
ATOM     16  C   UNL     1      27.228  -0.132  53.889  1.00  0.00    +0.079 A 
ATOM     17  C   UNL     1      27.776   1.086  54.326  1.00  0.00    +0.063 A 
ATOM     18  C   UNL     1      28.119  -1.086  53.365  1.00  0.00    +0.278 A 
ATOM     19  C   UNL     1      29.151   1.319  54.239  1.00  0.00    +0.116 A 
ATOM     20  C   UNL     1      29.499  -0.852  53.270  1.00  0.00    +0.090 A 
ATOM     21  C   UNL     1      30.013   0.363  53.715  1.00  0.00    +0.053 A 
BRANCH  18  22
ATOM     22  N   UNL     1      27.641  -2.363  52.884  1.00  0.00    +0.063 N 
ATOM     23  O   UNL     1      26.669  -2.344  52.116  1.00  0.00    -0.258 OA
ATOM     24  O   UNL     1      28.212  -3.377  53.305  1.00  0.00    -0.258 OA
ENDBRANCH  18  22
BRANCH  19  25
ATOM     25  O   UNL     1      29.698   2.494  54.664  1.00  0.00    -0.508 OA
ATOM     26  H   UNL     1      29.945   2.411  55.601  1.00  0.00    +0.293 HD
ENDBRANCH  19  25
ENDBRANCH   4  16
TORSDOF 5
ENDMDL
MODEL 7
REMARK VINA RESULT:    -7.750      2.929      4.065
REMARK INTER + INTRA:         -10.542
REMARK INTER:                  -9.696
REMARK INTRA:                  -0.846
REMARK UNBOUND:                -0.754
REMARK SMILES CN(c1cccc(Cl)c1)c1ccc(-c2cc(O)ccc2[N+](=O)[O-])[nH]1
REMARK SMILES IDX 10 1 11 2 12 3 13 4 24 5 2 7 1 8 3 9 4 10 9 11 5 12 7 13
REMARK SMILES IDX 6 14 8 15 14 16 15 17 20 18 16 19 19 20 18 21 21 22 22 23
REMARK SMILES IDX 23 24 17 25
REMARK H PARENT 24 6 17 26
ROOT
ATOM      1  C   UNL     1      23.356   3.421  50.583  1.00  0.00    +0.110 A 
ATOM      2  C   UNL     1      22.667   2.541  49.773  1.00  0.00    +0.047 A 
ATOM      3  C   UNL     1      22.473   1.342  50.500  1.00  0.00    +0.031 A 
ATOM      4  C   UNL     1      23.058   1.493  51.746  1.00  0.00    +0.054 A 
ATOM      5  N   UNL     1      23.615   2.755  51.758  1.00  0.00    -0.341 N 
ATOM      6  H   UNL     1      24.128   3.166  52.529  1.00  0.00    +0.168 HD
ENDROOT
BRANCH   1   7
ATOM      7  N   UNL     1      23.823   4.691  50.387  1.00  0.00    -0.331 N 
ATOM      8  C   UNL     1      23.478   5.717  51.380  1.00  0.00    +0.152 C 
BRANCH   7   9
ATOM      9  C   UNL     1      25.069   4.969  49.755  1.00  0.00    +0.043 A 
ATOM     10  C   UNL     1      26.074   3.995  49.637  1.00  0.00    +0.026 A 
ATOM     11  C   UNL     1      25.316   6.245  49.226  1.00  0.00    +0.046 A 
ATOM     12  C   UNL     1      27.286   4.282  49.004  1.00  0.00    +0.004 A 
ATOM     13  C   UNL     1      26.528   6.529  48.597  1.00  0.00    +0.043 A 
ATOM     14  C   UNL     1      27.515   5.553  48.483  1.00  0.00    +0.020 A 
ATOM     15 Cl   UNL     1      26.805   8.100  47.949  1.00  0.00    -0.084 Cl
ENDBRANCH   7   9
ENDBRANCH   1   7
BRANCH   4  16
ATOM     16  C   UNL     1      23.165   0.539  52.856  1.00  0.00    +0.079 A 
ATOM     17  C   UNL     1      21.980  -0.013  53.372  1.00  0.00    +0.063 A 
ATOM     18  C   UNL     1      24.371   0.158  53.470  1.00  0.00    +0.278 A 
ATOM     19  C   UNL     1      22.019  -0.903  54.448  1.00  0.00    +0.116 A 
ATOM     20  C   UNL     1      24.414  -0.732  54.555  1.00  0.00    +0.090 A 
ATOM     21  C   UNL     1      23.224  -1.264  55.042  1.00  0.00    +0.053 A 
BRANCH  18  22
ATOM     22  N   UNL     1      25.638   0.683  53.010  1.00  0.00    +0.063 N 
ATOM     23  O   UNL     1      26.264  -0.004  52.191  1.00  0.00    -0.258 OA
ATOM     24  O   UNL     1      26.016   1.756  53.497  1.00  0.00    -0.258 OA
ENDBRANCH  18  22
BRANCH  19  25
ATOM     25  O   UNL     1      20.878  -1.451  54.956  1.00  0.00    -0.508 OA
ATOM     26  H   UNL     1      20.187  -1.440  54.273  1.00  0.00    +0.293 HD
ENDBRANCH  19  25
ENDBRANCH   4  16
TORSDOF 5
ENDMDL
MODEL 8
REMARK VINA RESULT:    -7.430      2.507      3.552
REMARK INTER + INTRA:         -10.139
REMARK INTER:                  -9.276
REMARK INTRA:                  -0.863
REMARK UNBOUND:                -0.754
REMARK SMILES CN(c1cccc(Cl)c1)c1ccc(-c2cc(O)ccc2[N+](=O)[O-])[nH]1
REMARK SMILES IDX 10 1 11 2 12 3 13 4 24 5 2 7 1 8 3 9 4 10 9 11 5 12 7 13
REMARK SMILES IDX 6 14 8 15 14 16 15 17 20 18 16 19 19 20 18 21 21 22 22 23
REMARK SMILES IDX 23 24 17 25
REMARK H PARENT 24 6 17 26
ROOT
ATOM      1  C   UNL     1      24.235   4.566  50.617  1.00  0.00    +0.110 A 
ATOM      2  C   UNL     1      23.647   5.120  51.735  1.00  0.00    +0.047 A 
ATOM      3  C   UNL     1      23.682   4.153  52.769  1.00  0.00    +0.031 A 
ATOM      4  C   UNL     1      24.282   3.009  52.270  1.00  0.00    +0.054 A 
ATOM      5  N   UNL     1      24.580   3.276  50.949  1.00  0.00    -0.341 N 
ATOM      6  H   UNL     1      25.017   2.631  50.302  1.00  0.00    +0.168 HD
ENDROOT
BRANCH   1   7
ATOM      7  N   UNL     1      24.444   5.035  49.349  1.00  0.00    -0.331 N 
ATOM      8  C   UNL     1      23.318   5.670  48.651  1.00  0.00    +0.152 C 
BRANCH   7   9
ATOM      9  C   UNL     1      25.695   5.558  48.913  1.00  0.00    +0.043 A 
ATOM     10  C   UNL     1      26.872   4.793  48.950  1.00  0.00    +0.026 A 
ATOM     11  C   UNL     1      25.772   6.871  48.425  1.00  0.00    +0.046 A 
ATOM     12  C   UNL     1      28.089   5.319  48.508  1.00  0.00    +0.004 A 
ATOM     13  C   UNL     1      26.988   7.394  47.986  1.00  0.00    +0.043 A 
ATOM     14  C   UNL     1      28.148   6.624  48.024  1.00  0.00    +0.020 A 
ATOM     15 Cl   UNL     1      27.056   9.006  47.385  1.00  0.00    -0.084 Cl
ENDBRANCH   7   9
ENDBRANCH   1   7
BRANCH   4  16
ATOM     16  C   UNL     1      24.529   1.717  52.920  1.00  0.00    +0.079 A 
ATOM     17  C   UNL     1      23.428   0.878  53.167  1.00  0.00    +0.063 A 
ATOM     18  C   UNL     1      25.789   1.265  53.350  1.00  0.00    +0.278 A 
ATOM     19  C   UNL     1      23.600  -0.350  53.810  1.00  0.00    +0.116 A 
ATOM     20  C   UNL     1      25.964   0.034  54.002  1.00  0.00    +0.090 A 
ATOM     21  C   UNL     1      24.855  -0.776  54.229  1.00  0.00    +0.053 A 
BRANCH  18  22
ATOM     22  N   UNL     1      26.975   2.067  53.146  1.00  0.00    +0.063 N 
ATOM     23  O   UNL     1      27.399   2.152  51.985  1.00  0.00    -0.258 OA
ATOM     24  O   UNL     1      27.497   2.572  54.148  1.00  0.00    -0.258 OA
ENDBRANCH  18  22
BRANCH  19  25
ATOM     25  O   UNL     1      22.542  -1.177  54.051  1.00  0.00    -0.508 OA
ATOM     26  H   UNL     1      22.764  -2.075  53.753  1.00  0.00    +0.293 HD
ENDBRANCH  19  25
ENDBRANCH   4  16
TORSDOF 5
ENDMDL
MODEL 9
REMARK VINA RESULT:    -7.184      5.039      7.268
REMARK INTER + INTRA:          -9.827
REMARK INTER:                  -9.306
REMARK INTRA:                  -0.521
REMARK UNBOUND:                -0.754
REMARK SMILES CN(c1cccc(Cl)c1)c1ccc(-c2cc(O)ccc2[N+](=O)[O-])[nH]1
REMARK SMILES IDX 10 1 11 2 12 3 13 4 24 5 2 7 1 8 3 9 4 10 9 11 5 12 7 13
REMARK SMILES IDX 6 14 8 15 14 16 15 17 20 18 16 19 19 20 18 21 21 22 22 23
REMARK SMILES IDX 23 24 17 25
REMARK H PARENT 24 6 17 26
ROOT
ATOM      1  C   UNL     1      23.296  -0.154  53.701  1.00  0.00    +0.110 A 
ATOM      2  C   UNL     1      22.974  -0.982  54.757  1.00  0.00    +0.047 A 
ATOM      3  C   UNL     1      21.585  -1.247  54.693  1.00  0.00    +0.031 A 
ATOM      4  C   UNL     1      21.065  -0.568  53.604  1.00  0.00    +0.054 A 
ATOM      5  N   UNL     1      22.122   0.115  53.037  1.00  0.00    -0.341 N 
ATOM      6  H   UNL     1      22.066   0.717  52.224  1.00  0.00    +0.168 HD
ENDROOT
BRANCH   1   7
ATOM      7  N   UNL     1      24.468   0.425  53.300  1.00  0.00    -0.331 N 
ATOM      8  C   UNL     1      25.592  -0.454  52.951  1.00  0.00    +0.152 C 
BRANCH   7   9
ATOM      9  C   UNL     1      24.519   1.653  52.579  1.00  0.00    +0.043 A 
ATOM     10  C   UNL     1      23.689   2.739  52.906  1.00  0.00    +0.026 A 
ATOM     11  C   UNL     1      25.419   1.803  51.514  1.00  0.00    +0.046 A 
ATOM     12  C   UNL     1      23.760   3.940  52.196  1.00  0.00    +0.004 A 
ATOM     13  C   UNL     1      25.486   3.002  50.806  1.00  0.00    +0.043 A 
ATOM     14  C   UNL     1      24.661   4.073  51.142  1.00  0.00    +0.020 A 
ATOM     15 Cl   UNL     1      26.604   3.164  49.506  1.00  0.00    -0.084 Cl
ENDBRANCH   7   9
ENDBRANCH   1   7
BRANCH   4  16
ATOM     16  C   UNL     1      19.682  -0.483  53.122  1.00  0.00    +0.079 A 
ATOM     17  C   UNL     1      18.805  -1.536  53.436  1.00  0.00    +0.063 A 
ATOM     18  C   UNL     1      19.171   0.563  52.332  1.00  0.00    +0.278 A 
ATOM     19  C   UNL     1      17.485  -1.523  52.978  1.00  0.00    +0.116 A 
ATOM     20  C   UNL     1      17.848   0.575  51.866  1.00  0.00    +0.090 A 
ATOM     21  C   UNL     1      17.002  -0.480  52.197  1.00  0.00    +0.053 A 
BRANCH  18  22
ATOM     22  N   UNL     1      20.005   1.682  51.953  1.00  0.00    +0.063 N 
ATOM     23  O   UNL     1      20.056   2.635  52.744  1.00  0.00    -0.258 OA
ATOM     24  O   UNL     1      20.570   1.620  50.854  1.00  0.00    -0.258 OA
ENDBRANCH  18  22
BRANCH  19  25
ATOM     25  O   UNL     1      16.621  -2.535  53.281  1.00  0.00    -0.508 OA
ATOM     26  H   UNL     1      15.807  -2.425  52.761  1.00  0.00    +0.293 HD
ENDBRANCH  19  25
ENDBRANCH   4  16
TORSDOF 5
ENDMDL
