MODEL 1
REMARK VINA RESULT:    -7.553      0.000      0.000
REMARK INTER + INTRA:          -9.332
REMARK INTER:                  -8.657
REMARK INTRA:                  -0.675
REMARK UNBOUND:                -0.675
REMARK SMILES N#CC(C#N)=Cc1ncnc2c1C(=C(C#N)C(N)=C(C#N)C#N)C(=O)N2
REMARK SMILES IDX 17 1 19 2 20 3 21 4 22 5 23 6 14 7 7 8 8 9 12 10 9 11 11 12
REMARK SMILES IDX 13 13 10 14 26 15 24 16 15 17 25 18 16 19 6 21 1 22 2 23
REMARK SMILES IDX 3 24 4 25 5 26 18 27
REMARK H PARENT 26 20 18 28 18 29
ROOT
ATOM      1  C   UNL     1      22.970   2.310  50.841  1.00  0.00    +0.079 C 
ATOM      2  C   UNL     1      22.610   3.622  50.925  1.00  0.00    +0.153 C 
ATOM      3  C   UNL     1      21.684   4.176  49.997  1.00  0.00    +0.113 C 
ATOM      4  N   UNL     1      20.939   4.565  49.198  1.00  0.00    -0.192 NA
ATOM      5  C   UNL     1      23.098   4.485  51.949  1.00  0.00    +0.113 C 
ATOM      6  N   UNL     1      23.477   5.138  52.829  1.00  0.00    -0.192 NA
ENDROOT
BRANCH   1   7
ATOM      7  C   UNL     1      24.019   1.741  51.718  1.00  0.00    +0.091 C 
ATOM      8  C   UNL     1      21.209   0.485  53.318  1.00  0.00    +0.079 A 
ATOM      9  N   UNL     1      20.366  -0.349  53.974  1.00  0.00    -0.236 NA
ATOM     10  C   UNL     1      22.561   0.260  53.276  1.00  0.00    +0.057 A 
ATOM     11  C   UNL     1      20.897  -1.402  54.623  1.00  0.00    +0.224 A 
ATOM     12  C   UNL     1      22.970  -0.822  54.044  1.00  0.00    +0.145 A 
ATOM     13  C   UNL     1      23.791   0.856  52.715  1.00  0.00    +0.073 C 
ATOM     14  N   UNL     1      22.200  -1.676  54.716  1.00  0.00    -0.218 NA
ATOM     15  N   UNL     1      24.350  -0.894  54.091  1.00  0.00    -0.306 N 
ATOM     16  C   UNL     1      24.938   0.117  53.375  1.00  0.00    +0.259 C 
ATOM     17  C   UNL     1      25.355   2.082  51.300  1.00  0.00    +0.102 C 
ATOM     18  O   UNL     1      26.124   0.342  53.282  1.00  0.00    -0.269 OA
ATOM     19  N   UNL     1      26.376   2.417  50.863  1.00  0.00    -0.192 NA
ATOM     20  H   UNL     1      24.855  -1.571  54.644  1.00  0.00    +0.171 HD
BRANCH   8  21
ATOM     21  C   UNL     1      20.539   1.689  52.826  1.00  0.00    +0.060 C 
ATOM     22  N   UNL     1      18.275  -0.446  51.211  1.00  0.00    -0.192 NA
ATOM     23  C   UNL     1      18.766   0.517  51.635  1.00  0.00    +0.111 C 
ATOM     24  C   UNL     1      19.392   1.703  52.116  1.00  0.00    +0.131 C 
ATOM     25  C   UNL     1      18.794   2.956  51.810  1.00  0.00    +0.111 C 
ATOM     26  N   UNL     1      18.353   4.006  51.592  1.00  0.00    -0.192 NA
ENDBRANCH   8  21
ENDBRANCH   1   7
BRANCH   1  27
ATOM     27  N   UNL     1      22.439   1.407  49.914  1.00  0.00    -0.396 N 
ATOM     28  H   UNL     1      21.685   1.773  49.325  1.00  0.00    +0.156 HD
ATOM     29  H   UNL     1      23.139   0.951  49.323  1.00  0.00    +0.156 HD
ENDBRANCH   1  27
TORSDOF 3
ENDMDL
MODEL 2
REMARK VINA RESULT:    -7.548      2.099      5.010
REMARK INTER + INTRA:          -9.326
REMARK INTER:                  -9.118
REMARK INTRA:                  -0.209
REMARK UNBOUND:                -0.675
REMARK SMILES N#CC(C#N)=Cc1ncnc2c1C(=C(C#N)C(N)=C(C#N)C#N)C(=O)N2
REMARK SMILES IDX 17 1 19 2 20 3 21 4 22 5 23 6 14 7 7 8 8 9 12 10 9 11 11 12
REMARK SMILES IDX 13 13 10 14 26 15 24 16 15 17 25 18 16 19 6 21 1 22 2 23
REMARK SMILES IDX 3 24 4 25 5 26 18 27
REMARK H PARENT 26 20 18 28 18 29
ROOT
ATOM      1  C   UNL     1      21.445   2.584  51.617  1.00  0.00    +0.079 C 
ATOM      2  C   UNL     1      21.959   2.689  50.359  1.00  0.00    +0.153 C 
ATOM      3  C   UNL     1      22.771   3.801  50.002  1.00  0.00    +0.113 C 
ATOM      4  N   UNL     1      23.409   4.743  49.775  1.00  0.00    -0.192 NA
ATOM      5  C   UNL     1      21.750   1.691  49.362  1.00  0.00    +0.113 C 
ATOM      6  N   UNL     1      21.600   0.831  48.600  1.00  0.00    -0.192 NA
ENDROOT
BRANCH   1   7
ATOM      7  C   UNL     1      20.501   1.501  51.978  1.00  0.00    +0.091 C 
ATOM      8  C   UNL     1      23.412   0.185  53.334  1.00  0.00    +0.079 A 
ATOM      9  N   UNL     1      24.273  -0.438  54.173  1.00  0.00    -0.236 NA
ATOM     10  C   UNL     1      22.055   0.002  53.423  1.00  0.00    +0.057 A 
ATOM     11  C   UNL     1      23.762  -1.281  55.090  1.00  0.00    +0.224 A 
ATOM     12  C   UNL     1      21.681  -0.944  54.368  1.00  0.00    +0.145 A 
ATOM     13  C   UNL     1      20.807   0.446  52.767  1.00  0.00    +0.073 C 
ATOM     14  N   UNL     1      22.472  -1.596  55.218  1.00  0.00    -0.218 NA
ATOM     15  N   UNL     1      20.324  -1.200  54.292  1.00  0.00    -0.306 N 
ATOM     16  C   UNL     1      19.720  -0.459  53.310  1.00  0.00    +0.259 C 
ATOM     17  C   UNL     1      19.150   1.758  51.549  1.00  0.00    +0.102 C 
ATOM     18  O   UNL     1      18.557  -0.513  52.976  1.00  0.00    -0.269 OA
ATOM     19  N   UNL     1      18.106   2.079  51.160  1.00  0.00    -0.192 NA
ATOM     20  H   UNL     1      19.857  -1.900  54.850  1.00  0.00    +0.171 HD
BRANCH   8  21
ATOM     21  C   UNL     1      24.095   0.914  52.265  1.00  0.00    +0.060 C 
ATOM     22  N   UNL     1      26.520   1.777  54.647  1.00  0.00    -0.192 NA
ATOM     23  C   UNL     1      25.978   1.643  53.628  1.00  0.00    +0.111 C 
ATOM     24  C   UNL     1      25.294   1.520  52.384  1.00  0.00    +0.131 C 
ATOM     25  C   UNL     1      25.892   2.087  51.225  1.00  0.00    +0.111 C 
ATOM     26  N   UNL     1      26.328   2.528  50.245  1.00  0.00    -0.192 NA
ENDBRANCH   8  21
ENDBRANCH   1   7
BRANCH   1  27
ATOM     27  N   UNL     1      21.707   3.490  52.650  1.00  0.00    -0.396 N 
ATOM     28  H   UNL     1      21.841   4.463  52.360  1.00  0.00    +0.156 HD
ATOM     29  H   UNL     1      21.033   3.456  53.420  1.00  0.00    +0.156 HD
ENDBRANCH   1  27
TORSDOF 3
ENDMDL
MODEL 3
REMARK VINA RESULT:    -6.963      1.962      3.453
REMARK INTER + INTRA:          -8.656
REMARK INTER:                  -7.680
REMARK INTRA:                  -0.976
REMARK UNBOUND:                -0.675
REMARK SMILES N#CC(C#N)=Cc1ncnc2c1C(=C(C#N)C(N)=C(C#N)C#N)C(=O)N2
REMARK SMILES IDX 17 1 19 2 20 3 21 4 22 5 23 6 14 7 7 8 8 9 12 10 9 11 11 12
REMARK SMILES IDX 13 13 10 14 26 15 24 16 15 17 25 18 16 19 6 21 1 22 2 23
REMARK SMILES IDX 3 24 4 25 5 26 18 27
REMARK H PARENT 26 20 18 28 18 29
ROOT
ATOM      1  C   UNL     1      21.808   1.550  50.615  1.00  0.00    +0.079 C 
ATOM      2  C   UNL     1      22.051   2.881  50.443  1.00  0.00    +0.153 C 
ATOM      3  C   UNL     1      22.237   3.417  49.138  1.00  0.00    +0.113 C 
ATOM      4  N   UNL     1      22.397   3.782  48.049  1.00  0.00    -0.192 NA
ATOM      5  C   UNL     1      22.090   3.798  51.534  1.00  0.00    +0.113 C 
ATOM      6  N   UNL     1      22.061   4.517  52.443  1.00  0.00    -0.192 NA
ENDROOT
BRANCH   1   7
ATOM      7  C   UNL     1      21.729   0.948  51.966  1.00  0.00    +0.091 C 
ATOM      8  C   UNL     1      18.347   1.050  51.198  1.00  0.00    +0.079 A 
ATOM      9  N   UNL     1      17.041   0.706  51.092  1.00  0.00    -0.236 NA
ATOM     10  C   UNL     1      19.186   0.431  52.090  1.00  0.00    +0.057 A 
ATOM     11  C   UNL     1      16.569  -0.247  51.917  1.00  0.00    +0.224 A 
ATOM     12  C   UNL     1      18.546  -0.480  52.918  1.00  0.00    +0.145 A 
ATOM     13  C   UNL     1      20.597   0.468  52.528  1.00  0.00    +0.073 C 
ATOM     14  N   UNL     1      17.270  -0.859  52.873  1.00  0.00    -0.218 NA
ATOM     15  N   UNL     1      19.409  -0.942  53.896  1.00  0.00    -0.306 N 
ATOM     16  C   UNL     1      20.653  -0.377  53.785  1.00  0.00    +0.259 C 
ATOM     17  C   UNL     1      23.019   0.756  52.578  1.00  0.00    +0.102 C 
ATOM     18  O   UNL     1      21.593  -0.545  54.531  1.00  0.00    -0.269 OA
ATOM     19  N   UNL     1      24.108   0.647  52.961  1.00  0.00    -0.192 NA
ATOM     20  H   UNL     1      19.128  -1.567  54.637  1.00  0.00    +0.171 HD
BRANCH   8  21
ATOM     21  C   UNL     1      18.688   2.223  50.394  1.00  0.00    +0.060 C 
ATOM     22  N   UNL     1      16.514   4.047  52.455  1.00  0.00    -0.192 NA
ATOM     23  C   UNL     1      17.319   3.794  51.656  1.00  0.00    +0.111 C 
ATOM     24  C   UNL     1      18.272   3.481  50.644  1.00  0.00    +0.131 C 
ATOM     25  C   UNL     1      18.784   4.541  49.845  1.00  0.00    +0.111 C 
ATOM     26  N   UNL     1      19.236   5.363  49.163  1.00  0.00    -0.192 NA
ENDBRANCH   8  21
ENDBRANCH   1   7
BRANCH   1  27
ATOM     27  N   UNL     1      21.663   0.636  49.566  1.00  0.00    -0.396 N 
ATOM     28  H   UNL     1      22.221  -0.219  49.646  1.00  0.00    +0.156 HD
ATOM     29  H   UNL     1      20.693   0.389  49.354  1.00  0.00    +0.156 HD
ENDBRANCH   1  27
TORSDOF 3
ENDMDL
MODEL 4
REMARK VINA RESULT:    -6.894      1.831      2.242
REMARK INTER + INTRA:          -8.576
REMARK INTER:                  -7.787
REMARK INTRA:                  -0.789
REMARK UNBOUND:                -0.675
REMARK SMILES N#CC(C#N)=Cc1ncnc2c1C(=C(C#N)C(N)=C(C#N)C#N)C(=O)N2
REMARK SMILES IDX 17 1 19 2 20 3 21 4 22 5 23 6 14 7 7 8 8 9 12 10 9 11 11 12
REMARK SMILES IDX 13 13 10 14 26 15 24 16 15 17 25 18 16 19 6 21 1 22 2 23
REMARK SMILES IDX 3 24 4 25 5 26 18 27
REMARK H PARENT 26 20 18 28 18 29
ROOT
ATOM      1  C   UNL     1      23.824   3.709  49.473  1.00  0.00    +0.079 C 
ATOM      2  C   UNL     1      23.360   4.991  49.508  1.00  0.00    +0.153 C 
ATOM      3  C   UNL     1      22.311   5.400  48.638  1.00  0.00    +0.113 C 
ATOM      4  N   UNL     1      21.467   5.671  47.890  1.00  0.00    -0.192 NA
ATOM      5  C   UNL     1      23.861   5.961  50.425  1.00  0.00    +0.113 C 
ATOM      6  N   UNL     1      24.258   6.702  51.222  1.00  0.00    -0.192 NA
ENDROOT
BRANCH   1   7
ATOM      7  C   UNL     1      24.993   3.290  50.281  1.00  0.00    +0.091 C 
ATOM      8  C   UNL     1      22.456   1.920  52.210  1.00  0.00    +0.079 A 
ATOM      9  N   UNL     1      21.752   1.066  52.992  1.00  0.00    -0.236 NA
ATOM     10  C   UNL     1      23.814   1.804  52.056  1.00  0.00    +0.057 A 
ATOM     11  C   UNL     1      22.429   0.107  53.650  1.00  0.00    +0.224 A 
ATOM     12  C   UNL     1      24.383   0.815  52.846  1.00  0.00    +0.145 A 
ATOM     13  C   UNL     1      24.932   2.460  51.347  1.00  0.00    +0.073 C 
ATOM     14  N   UNL     1      23.753  -0.051  53.638  1.00  0.00    -0.218 NA
ATOM     15  N   UNL     1      25.763   0.861  52.768  1.00  0.00    -0.306 N 
ATOM     16  C   UNL     1      26.193   1.865  51.940  1.00  0.00    +0.259 C 
ATOM     17  C   UNL     1      26.251   3.711  49.720  1.00  0.00    +0.102 C 
ATOM     18  O   UNL     1      27.343   2.181  51.723  1.00  0.00    -0.269 OA
ATOM     19  N   UNL     1      27.196   4.099  49.170  1.00  0.00    -0.192 NA
ATOM     20  H   UNL     1      26.372   0.267  53.312  1.00  0.00    +0.171 HD
BRANCH   8  21
ATOM     21  C   UNL     1      21.642   3.028  51.710  1.00  0.00    +0.060 C 
ATOM     22  N   UNL     1      19.646   0.615  50.131  1.00  0.00    -0.192 NA
ATOM     23  C   UNL     1      20.019   1.635  50.543  1.00  0.00    +0.111 C 
ATOM     24  C   UNL     1      20.498   2.894  51.008  1.00  0.00    +0.131 C 
ATOM     25  C   UNL     1      19.749   4.061  50.693  1.00  0.00    +0.111 C 
ATOM     26  N   UNL     1      19.182   5.047  50.468  1.00  0.00    -0.192 NA
ENDBRANCH   8  21
ENDBRANCH   1   7
BRANCH   1  27
ATOM     27  N   UNL     1      23.294   2.703  48.659  1.00  0.00    -0.396 N 
ATOM     28  H   UNL     1      22.326   2.436  48.861  1.00  0.00    +0.156 HD
ATOM     29  H   UNL     1      23.393   2.879  47.655  1.00  0.00    +0.156 HD
ENDBRANCH   1  27
TORSDOF 3
ENDMDL
MODEL 5
REMARK VINA RESULT:    -6.581      2.752      6.093
REMARK INTER + INTRA:          -8.217
REMARK INTER:                  -7.223
REMARK INTRA:                  -0.995
REMARK UNBOUND:                -0.675
REMARK SMILES N#CC(C#N)=Cc1ncnc2c1C(=C(C#N)C(N)=C(C#N)C#N)C(=O)N2
REMARK SMILES IDX 17 1 19 2 20 3 21 4 22 5 23 6 14 7 7 8 8 9 12 10 9 11 11 12
REMARK SMILES IDX 13 13 10 14 26 15 24 16 15 17 25 18 16 19 6 21 1 22 2 23
REMARK SMILES IDX 3 24 4 25 5 26 18 27
REMARK H PARENT 26 20 18 28 18 29
ROOT
ATOM      1  C   UNL     1      22.710   3.570  51.484  1.00  0.00    +0.079 C 
ATOM      2  C   UNL     1      21.588   2.915  51.070  1.00  0.00    +0.153 C 
ATOM      3  C   UNL     1      20.314   3.265  51.599  1.00  0.00    +0.113 C 
ATOM      4  N   UNL     1      19.311   3.589  52.084  1.00  0.00    -0.192 NA
ATOM      5  C   UNL     1      21.622   1.894  50.077  1.00  0.00    +0.113 C 
ATOM      6  N   UNL     1      21.687   1.107  49.228  1.00  0.00    -0.192 NA
ENDROOT
BRANCH   1   7
ATOM      7  C   UNL     1      24.058   3.146  51.041  1.00  0.00    +0.091 C 
ATOM      8  C   UNL     1      23.616   5.884  48.956  1.00  0.00    +0.079 A 
ATOM      9  N   UNL     1      23.857   7.009  48.241  1.00  0.00    -0.236 NA
ATOM     10  C   UNL     1      24.634   5.084  49.408  1.00  0.00    +0.057 A 
ATOM     11  C   UNL     1      25.136   7.311  47.950  1.00  0.00    +0.224 A 
ATOM     12  C   UNL     1      25.891   5.483  48.976  1.00  0.00    +0.145 A 
ATOM     13  C   UNL     1      24.838   3.841  50.181  1.00  0.00    +0.073 C 
ATOM     14  N   UNL     1      26.197   6.569  48.269  1.00  0.00    -0.218 NA
ATOM     15  N   UNL     1      26.848   4.547  49.326  1.00  0.00    -0.306 N 
ATOM     16  C   UNL     1      26.300   3.485  49.998  1.00  0.00    +0.259 C 
ATOM     17  C   UNL     1      24.554   1.994  51.749  1.00  0.00    +0.102 C 
ATOM     18  O   UNL     1      26.881   2.492  50.378  1.00  0.00    -0.269 OA
ATOM     19  N   UNL     1      24.843   1.072  52.390  1.00  0.00    -0.192 NA
ATOM     20  H   UNL     1      27.818   4.614  49.055  1.00  0.00    +0.171 HD
BRANCH   8  21
ATOM     21  C   UNL     1      22.191   5.562  49.036  1.00  0.00    +0.060 C 
ATOM     22  N   UNL     1      22.287   5.081  45.564  1.00  0.00    -0.192 NA
ATOM     23  C   UNL     1      21.912   5.086  46.663  1.00  0.00    +0.111 C 
ATOM     24  C   UNL     1      21.434   5.136  48.004  1.00  0.00    +0.131 C 
ATOM     25  C   UNL     1      20.090   4.744  48.259  1.00  0.00    +0.111 C 
ATOM     26  N   UNL     1      19.005   4.437  48.528  1.00  0.00    -0.192 NA
ENDBRANCH   8  21
ENDBRANCH   1   7
BRANCH   1  27
ATOM     27  N   UNL     1      22.708   4.642  52.382  1.00  0.00    -0.396 N 
ATOM     28  H   UNL     1      22.504   5.559  51.974  1.00  0.00    +0.156 HD
ATOM     29  H   UNL     1      22.117   4.500  53.206  1.00  0.00    +0.156 HD
ENDBRANCH   1  27
TORSDOF 3
ENDMDL
MODEL 6
REMARK VINA RESULT:    -6.503      2.657      5.468
REMARK INTER + INTRA:          -8.128
REMARK INTER:                  -7.433
REMARK INTRA:                  -0.694
REMARK UNBOUND:                -0.675
REMARK SMILES N#CC(C#N)=Cc1ncnc2c1C(=C(C#N)C(N)=C(C#N)C#N)C(=O)N2
REMARK SMILES IDX 17 1 19 2 20 3 21 4 22 5 23 6 14 7 7 8 8 9 12 10 9 11 11 12
REMARK SMILES IDX 13 13 10 14 26 15 24 16 15 17 25 18 16 19 6 21 1 22 2 23
REMARK SMILES IDX 3 24 4 25 5 26 18 27
REMARK H PARENT 26 20 18 28 18 29
ROOT
ATOM      1  C   UNL     1      22.750   2.459  51.263  1.00  0.00    +0.079 C 
ATOM      2  C   UNL     1      22.162   3.431  52.016  1.00  0.00    +0.153 C 
ATOM      3  C   UNL     1      20.745   3.562  52.045  1.00  0.00    +0.113 C 
ATOM      4  N   UNL     1      19.587   3.623  52.007  1.00  0.00    -0.192 NA
ATOM      5  C   UNL     1      22.914   4.326  52.832  1.00  0.00    +0.113 C 
ATOM      6  N   UNL     1      23.559   4.998  53.522  1.00  0.00    -0.192 NA
ENDROOT
BRANCH   1   7
ATOM      7  C   UNL     1      24.222   2.377  51.121  1.00  0.00    +0.091 C 
ATOM      8  C   UNL     1      23.579   4.913  48.842  1.00  0.00    +0.079 A 
ATOM      9  N   UNL     1      23.687   6.059  48.128  1.00  0.00    -0.236 NA
ATOM     10  C   UNL     1      24.643   4.389  49.532  1.00  0.00    +0.057 A 
ATOM     11  C   UNL     1      24.888   6.664  48.082  1.00  0.00    +0.224 A 
ATOM     12  C   UNL     1      25.830   5.081  49.338  1.00  0.00    +0.145 A 
ATOM     13  C   UNL     1      24.974   3.237  50.397  1.00  0.00    +0.073 C 
ATOM     14  N   UNL     1      26.007   6.206  48.647  1.00  0.00    -0.218 NA
ATOM     15  N   UNL     1      26.888   4.411  49.923  1.00  0.00    -0.306 N 
ATOM     16  C   UNL     1      26.483   3.251  50.530  1.00  0.00    +0.259 C 
ATOM     17  C   UNL     1      24.821   1.385  51.978  1.00  0.00    +0.102 C 
ATOM     18  O   UNL     1      27.193   2.432  51.072  1.00  0.00    -0.269 OA
ATOM     19  N   UNL     1      25.183   0.565  52.713  1.00  0.00    -0.192 NA
ATOM     20  H   UNL     1      27.849   4.712  49.848  1.00  0.00    +0.171 HD
BRANCH   8  21
ATOM     21  C   UNL     1      22.288   4.251  48.653  1.00  0.00    +0.060 C 
ATOM     22  N   UNL     1      20.809   7.169  49.916  1.00  0.00    -0.192 NA
ATOM     23  C   UNL     1      20.935   6.126  49.420  1.00  0.00    +0.111 C 
ATOM     24  C   UNL     1      21.085   4.827  48.855  1.00  0.00    +0.131 C 
ATOM     25  C   UNL     1      19.913   4.098  48.513  1.00  0.00    +0.111 C 
ATOM     26  N   UNL     1      18.994   3.456  48.215  1.00  0.00    -0.192 NA
ENDBRANCH   8  21
ENDBRANCH   1   7
BRANCH   1  27
ATOM     27  N   UNL     1      22.045   1.501  50.527  1.00  0.00    -0.396 N 
ATOM     28  H   UNL     1      21.180   1.162  50.959  1.00  0.00    +0.156 HD
ATOM     29  H   UNL     1      21.856   1.770  49.558  1.00  0.00    +0.156 HD
ENDBRANCH   1  27
TORSDOF 3
ENDMDL
MODEL 7
REMARK VINA RESULT:    -6.475      3.388      5.397
REMARK INTER + INTRA:          -8.096
REMARK INTER:                  -7.278
REMARK INTRA:                  -0.818
REMARK UNBOUND:                -0.675
REMARK SMILES N#CC(C#N)=Cc1ncnc2c1C(=C(C#N)C(N)=C(C#N)C#N)C(=O)N2
REMARK SMILES IDX 17 1 19 2 20 3 21 4 22 5 23 6 14 7 7 8 8 9 12 10 9 11 11 12
REMARK SMILES IDX 13 13 10 14 26 15 24 16 15 17 25 18 16 19 6 21 1 22 2 23
REMARK SMILES IDX 3 24 4 25 5 26 18 27
REMARK H PARENT 26 20 18 28 18 29
ROOT
ATOM      1  C   UNL     1      22.314   4.604  48.487  1.00  0.00    +0.079 C 
ATOM      2  C   UNL     1      21.179   5.152  49.007  1.00  0.00    +0.153 C 
ATOM      3  C   UNL     1      19.933   4.476  48.887  1.00  0.00    +0.113 C 
ATOM      4  N   UNL     1      18.949   3.879  48.738  1.00  0.00    -0.192 NA
ATOM      5  C   UNL     1      21.183   6.386  49.721  1.00  0.00    +0.113 C 
ATOM      6  N   UNL     1      21.240   7.364  50.340  1.00  0.00    -0.192 NA
ENDROOT
BRANCH   1   7
ATOM      7  C   UNL     1      23.599   5.341  48.493  1.00  0.00    +0.091 C 
ATOM      8  C   UNL     1      24.370   2.850  50.781  1.00  0.00    +0.079 A 
ATOM      9  N   UNL     1      25.044   1.894  51.464  1.00  0.00    -0.236 NA
ATOM     10  C   UNL     1      25.018   3.776  50.004  1.00  0.00    +0.057 A 
ATOM     11  C   UNL     1      26.388   1.893  51.389  1.00  0.00    +0.224 A 
ATOM     12  C   UNL     1      26.402   3.694  50.077  1.00  0.00    +0.145 A 
ATOM     13  C   UNL     1      24.718   4.929  49.130  1.00  0.00    +0.073 C 
ATOM     14  N   UNL     1      27.126   2.787  50.730  1.00  0.00    -0.218 NA
ATOM     15  N   UNL     1      26.990   4.752  49.407  1.00  0.00    -0.306 N 
ATOM     16  C   UNL     1      26.055   5.590  48.859  1.00  0.00    +0.259 C 
ATOM     17  C   UNL     1      23.610   6.472  47.601  1.00  0.00    +0.102 C 
ATOM     18  O   UNL     1      26.270   6.625  48.266  1.00  0.00    -0.269 OA
ATOM     19  N   UNL     1      23.498   7.348  46.848  1.00  0.00    -0.192 NA
ATOM     20  H   UNL     1      27.986   4.915  49.388  1.00  0.00    +0.171 HD
BRANCH   8  21
ATOM     21  C   UNL     1      22.942   2.868  51.099  1.00  0.00    +0.060 C 
ATOM     22  N   UNL     1      23.732   5.067  53.713  1.00  0.00    -0.192 NA
ATOM     23  C   UNL     1      23.120   4.443  52.948  1.00  0.00    +0.111 C 
ATOM     24  C   UNL     1      22.367   3.643  52.041  1.00  0.00    +0.131 C 
ATOM     25  C   UNL     1      20.949   3.642  52.155  1.00  0.00    +0.111 C 
ATOM     26  N   UNL     1      19.791   3.601  52.198  1.00  0.00    -0.192 NA
ENDBRANCH   8  21
ENDBRANCH   1   7
BRANCH   1  27
ATOM     27  N   UNL     1      22.370   3.352  47.867  1.00  0.00    -0.396 N 
ATOM     28  H   UNL     1      22.125   3.341  46.872  1.00  0.00    +0.156 HD
ATOM     29  H   UNL     1      23.253   2.853  48.004  1.00  0.00    +0.156 HD
ENDBRANCH   1  27
TORSDOF 3
ENDMDL
MODEL 8
REMARK VINA RESULT:    -6.393      1.737      2.662
REMARK INTER + INTRA:          -8.002
REMARK INTER:                  -7.201
REMARK INTRA:                  -0.801
REMARK UNBOUND:                -0.675
REMARK SMILES N#CC(C#N)=Cc1ncnc2c1C(=C(C#N)C(N)=C(C#N)C#N)C(=O)N2
REMARK SMILES IDX 17 1 19 2 20 3 21 4 22 5 23 6 14 7 7 8 8 9 12 10 9 11 11 12
REMARK SMILES IDX 13 13 10 14 26 15 24 16 15 17 25 18 16 19 6 21 1 22 2 23
REMARK SMILES IDX 3 24 4 25 5 26 18 27
REMARK H PARENT 26 20 18 28 18 29
ROOT
ATOM      1  C   UNL     1      21.713   4.076  50.007  1.00  0.00    +0.079 C 
ATOM      2  C   UNL     1      21.173   3.429  48.935  1.00  0.00    +0.153 C 
ATOM      3  C   UNL     1      19.836   3.699  48.529  1.00  0.00    +0.113 C 
ATOM      4  N   UNL     1      18.735   3.954  48.265  1.00  0.00    -0.192 NA
ATOM      5  C   UNL     1      21.914   2.497  48.152  1.00  0.00    +0.113 C 
ATOM      6  N   UNL     1      22.568   1.786  47.511  1.00  0.00    -0.192 NA
ENDROOT
BRANCH   1   7
ATOM      7  C   UNL     1      23.057   3.727  50.521  1.00  0.00    +0.091 C 
ATOM      8  C   UNL     1      21.150   1.502  52.378  1.00  0.00    +0.079 A 
ATOM      9  N   UNL     1      20.739   0.378  53.013  1.00  0.00    -0.236 NA
ATOM     10  C   UNL     1      22.461   1.690  52.019  1.00  0.00    +0.057 A 
ATOM     11  C   UNL     1      21.665  -0.550  53.318  1.00  0.00    +0.224 A 
ATOM     12  C   UNL     1      23.310   0.683  52.457  1.00  0.00    +0.145 A 
ATOM     13  C   UNL     1      23.318   2.690  51.349  1.00  0.00    +0.073 C 
ATOM     14  N   UNL     1      22.975  -0.441  53.089  1.00  0.00    -0.218 NA
ATOM     15  N   UNL     1      24.629   1.013  52.208  1.00  0.00    -0.306 N 
ATOM     16  C   UNL     1      24.742   2.238  51.602  1.00  0.00    +0.259 C 
ATOM     17  C   UNL     1      24.114   4.497  49.917  1.00  0.00    +0.102 C 
ATOM     18  O   UNL     1      25.770   2.811  51.316  1.00  0.00    -0.269 OA
ATOM     19  N   UNL     1      24.873   5.172  49.357  1.00  0.00    -0.192 NA
ATOM     20  H   UNL     1      25.411   0.446  52.502  1.00  0.00    +0.171 HD
BRANCH   8  21
ATOM     21  C   UNL     1      20.096   2.511  52.280  1.00  0.00    +0.060 C 
ATOM     22  N   UNL     1      18.341   0.227  50.281  1.00  0.00    -0.192 NA
ATOM     23  C   UNL     1      18.587   1.162  50.924  1.00  0.00    +0.111 C 
ATOM     24  C   UNL     1      18.904   2.331  51.675  1.00  0.00    +0.131 C 
ATOM     25  C   UNL     1      17.929   3.363  51.764  1.00  0.00    +0.111 C 
ATOM     26  N   UNL     1      17.176   4.237  51.873  1.00  0.00    -0.192 NA
ENDBRANCH   8  21
ENDBRANCH   1   7
BRANCH   1  27
ATOM     27  N   UNL     1      21.053   5.068  50.740  1.00  0.00    -0.396 N 
ATOM     28  H   UNL     1      21.629   5.868  51.017  1.00  0.00    +0.156 HD
ATOM     29  H   UNL     1      20.189   5.407  50.307  1.00  0.00    +0.156 HD
ENDBRANCH   1  27
TORSDOF 3
ENDMDL
MODEL 9
REMARK VINA RESULT:    -6.255      2.143      3.069
REMARK INTER + INTRA:          -7.844
REMARK INTER:                  -6.893
REMARK INTRA:                  -0.951
REMARK UNBOUND:                -0.675
REMARK SMILES N#CC(C#N)=Cc1ncnc2c1C(=C(C#N)C(N)=C(C#N)C#N)C(=O)N2
REMARK SMILES IDX 17 1 19 2 20 3 21 4 22 5 23 6 14 7 7 8 8 9 12 10 9 11 11 12
REMARK SMILES IDX 13 13 10 14 26 15 24 16 15 17 25 18 16 19 6 21 1 22 2 23
REMARK SMILES IDX 3 24 4 25 5 26 18 27
REMARK H PARENT 26 20 18 28 18 29
ROOT
ATOM      1  C   UNL     1      22.799   3.022  48.328  1.00  0.00    +0.079 C 
ATOM      2  C   UNL     1      22.336   4.244  47.938  1.00  0.00    +0.153 C 
ATOM      3  C   UNL     1      21.786   4.425  46.638  1.00  0.00    +0.113 C 
ATOM      4  N   UNL     1      21.369   4.506  45.559  1.00  0.00    -0.192 NA
ATOM      5  C   UNL     1      22.339   5.375  48.806  1.00  0.00    +0.113 C 
ATOM      6  N   UNL     1      22.311   6.254  49.561  1.00  0.00    -0.192 NA
ENDROOT
BRANCH   1   7
ATOM      7  C   UNL     1      23.483   2.835  49.628  1.00  0.00    +0.091 C 
ATOM      8  C   UNL     1      20.379   1.506  50.429  1.00  0.00    +0.079 A 
ATOM      9  N   UNL     1      19.418   0.705  50.947  1.00  0.00    -0.236 NA
ATOM     10  C   UNL     1      21.662   1.502  50.916  1.00  0.00    +0.057 A 
ATOM     11  C   UNL     1      19.745  -0.083  51.988  1.00  0.00    +0.224 A 
ATOM     12  C   UNL     1      21.834   0.692  52.030  1.00  0.00    +0.145 A 
ATOM     13  C   UNL     1      22.964   2.159  50.679  1.00  0.00    +0.073 C 
ATOM     14  N   UNL     1      20.934  -0.112  52.592  1.00  0.00    -0.218 NA
ATOM     15  N   UNL     1      23.097   0.861  52.567  1.00  0.00    -0.306 N 
ATOM     16  C   UNL     1      23.832   1.777  51.860  1.00  0.00    +0.259 C 
ATOM     17  C   UNL     1      24.848   3.294  49.623  1.00  0.00    +0.102 C 
ATOM     18  O   UNL     1      24.947   2.170  52.127  1.00  0.00    -0.269 OA
ATOM     19  N   UNL     1      25.930   3.691  49.493  1.00  0.00    -0.192 NA
ATOM     20  H   UNL     1      23.406   0.411  53.416  1.00  0.00    +0.171 HD
BRANCH   8  21
ATOM     21  C   UNL     1      19.855   2.449  49.441  1.00  0.00    +0.060 C 
ATOM     22  N   UNL     1      17.878   3.773  52.017  1.00  0.00    -0.192 NA
ATOM     23  C   UNL     1      18.401   3.644  50.988  1.00  0.00    +0.111 C 
ATOM     24  C   UNL     1      19.006   3.462  49.711  1.00  0.00    +0.131 C 
ATOM     25  C   UNL     1      18.678   4.374  48.670  1.00  0.00    +0.111 C 
ATOM     26  N   UNL     1      18.449   5.084  47.783  1.00  0.00    -0.192 NA
ENDBRANCH   8  21
ENDBRANCH   1   7
BRANCH   1  27
ATOM     27  N   UNL     1      22.723   1.867  47.542  1.00  0.00    -0.396 N 
ATOM     28  H   UNL     1      23.400   1.810  46.775  1.00  0.00    +0.156 HD
ATOM     29  H   UNL     1      22.743   0.994  48.076  1.00  0.00    +0.156 HD
ENDBRANCH   1  27
TORSDOF 3
ENDMDL
